<?xml version="1.0"?><VTKFile type="PolyData" version="0.1" byte_order="LittleEndian">
<PolyData>
<Piece NumberOfLines="60" NumberOfPoints="215">
<PointData Scalars=" PointData">
<DataArray type="Float32" Name="time" NumberOfComponents="1" format="ascii" >
0 0.1003 0.196063 0.273575 0.372654 0.401479 0.505263 0.542925 0.686923 0.738379 0.796418 0.843214 1.0084 1.12318 1.20938 1.3531 1.38837 1.45644 1.56589 1.58346 1.64464 1.76899 1.91465 2.03327 2.13326 2.13818 2.19669 2.37525 2.50881 2.54312 2.54312 2.66778 2.8024 2.86146 2.94764 3.07515 3.25655 3.30128 3.47426 3.67067 3.67068 3.8588 4.10312 4.28946 4.30317 4.42475 4.68352 4.7749 4.93901 4.96734 4.99644 5.06397 5.4416 5.53178 5.80695 5.93203 6 0.832154 1.3888 2.58554 2.9667 4.26334 5.6485 5.72071 6 0.940209 6 1.02783 6 1.14004 1.14012 3 6 1.17274 6 1.29062 6 1.33346 3.76775 3.76784 6 1.49761 2.68844 2.93205 4.2102 5.56359 5.63116 6 2.68844 6 2.93205 3.34639 6 2.93205 6 3.34639 6 5.63116 5.86656 6 1.55641 6 1.6228 6 1.6764 2.93728 4.26471 4.70554 4.70556 6 1.8661 6 1.99836 6 2.09794 6 2.09794 6 2.26446 4.84285 4.84294 6 2.30543 6 2.38459 6 2.38459 6 2.51217 6 2.5327 6 2.60422 6 2.74996 4.06142 5.41563 6 2.92134 4.78148 6 3.06145 6 3.17994 3.18002 6 3.17994 6 3.18002 6 3.18578 4.35576 5.58963 6 3.25529 4.43812 5.68402 6 3.46822 6 3.62828 4.82677 4.82692 6 4.82677 6 4.82692 6 4.82692 6 3.66951 5.8305 6 3.66951 3.66959 6 5.92161 6 5.92161 6 5.92171 6 3.81971 6 3.98263 6 4.05435 5.18814 6 4.15926 6 4.3151 5.38359 6 4.53806 6 4.59326 6 4.8077 6 5.05297 5.35779 5.35781 6 5.05298 6 5.28979 6 5.60023 5.65077 6 5.83931 6 5.85699 6 
</DataArray>

</PointData>
<CellData Scalars=" CellData">
<DataArray type="Float32" Name="radius" NumberOfComponents="1" format="ascii" >
0.0794409 0.0773934 0.0657903 0.0846409 0.089709 0.0541721 0.069698 0.0559872 0.06222 0.0467458 0.0748723 0.0865398 0.0672283 0.057855 0.0633671 0.0534514 0.0755459 0.0570087 0.0740016 0.0708838 0.0571266 0.0730971 0.046053 0.0855501 0.0704394 0.0629245 0.069285 0.0584678 0.0817395 0.071446 0.0771353 0.0790794 0.083394 0.0574451 0.0729215 0.0663814 0.0726035 0.0660986 0.0996445 0.0880648 0.068621 0.0692535 0.0714025 0.0696804 0.0810803 0.0815369 0.0579923 0.0580068 0.0726824 0.0747245 0.0684944 0.071496 0.0810368 0.0579648 0.0726599 0.054023 0.0633042 0.0626334 0.0748227 0.0707546 
</DataArray>
<DataArray type="Float32" Name="subType" NumberOfComponents="1" format="ascii" >
1 2 3 3 3 3 3 3 2 3 3 3 3 3 3 3 2 3 3 3 3 3 3 3 3 3 3 3 2 3 3 3 3 3 2 2 3 3 3 3 3 3 3 3 3 3 3 3 2 3 2 3 3 3 2 3 3 2 2 3 
</DataArray>
<DataArray type="Float32" Name="creationTime" NumberOfComponents="1" format="ascii" >
0 0.832154 0.940209 1.02783 1.14004 1.17274 1.29062 1.33346 1.49761 2.68844 2.93205 2.93205 3.34639 5.63116 1.55641 1.6228 1.6764 1.8661 1.99836 2.09794 2.09794 2.26446 2.30543 2.38459 2.38459 2.51217 2.5327 2.60422 2.74996 2.92134 3.06145 3.17994 3.17994 3.18002 3.18578 3.25529 3.46822 3.62828 4.82677 4.82692 4.82692 3.66951 3.66951 5.92161 5.92161 5.92171 3.81971 3.98263 4.05435 4.15926 4.3151 4.53806 4.59326 4.8077 5.05297 5.05298 5.28979 5.60023 5.83931 5.85699 
</DataArray>

</CellData>
<Points>
<DataArray type="Float32" Name="Coordinates" NumberOfComponents="3" format="ascii" >
0 0 -3 -0.0648898 -0.00299223 -3.49096 -0.0961204 0.0173601 -3.95478 -0.209986 0.0961907 -4.29931 -0.225995 0.176694 -4.75989 -0.244008 0.213974 -4.88806 -0.374019 0.407021 -5.30753 -0.383787 0.44059 -5.47603 -0.443838 0.513913 -6.1173 -0.447329 0.52689 -6.34487 -0.467726 0.524536 -6.59887 -0.472491 0.487979 -6.79923 -0.424551 0.323489 -7.48489 -0.421569 0.175553 -7.94146 -0.419208 0.0641716 -8.27807 -0.392221 -0.121454 -8.82709 -0.386731 -0.171008 -8.95825 -0.372877 -0.246726 -9.21547 -0.32365 -0.355569 -9.62384 -0.316341 -0.37302 -9.68876 -0.310549 -0.41181 -9.91932 -0.454617 -0.401076 -10.3646 -0.532799 -0.476967 -10.8899 -0.505566 -0.588623 -11.3017 -0.50979 -0.642066 -11.6516 -0.510026 -0.644307 -11.6687 -0.542007 -0.662249 -11.8697 -0.638664 -0.722523 -12.4705 -0.658546 -0.701031 -12.9155 -0.661398 -0.690896 -13.0279 -0.661398 -0.690895 -13.0279 -0.668338 -0.705617 -13.4328 -0.74656 -0.721218 -13.8537 -0.778626 -0.736007 -14.0352 -0.827407 -0.768057 -14.2955 -0.862009 -0.779124 -14.6816 -0.841824 -0.878717 -15.2099 -0.828449 -0.888947 -15.339 -0.819266 -0.879713 -15.8335 -0.778844 -0.878785 -16.377 -0.778843 -0.878785 -16.377 -0.741581 -0.883983 -16.8814 -0.732259 -0.92329 -17.5142 -0.757669 -0.929166 -17.9803 -0.758291 -0.929967 -18.0141 -0.785979 -0.954104 -18.3082 -0.88017 -1.01234 -18.9095 -0.862365 -1.07515 -19.1089 -0.828219 -1.20086 -19.4542 -0.823532 -1.22301 -19.5127 -0.818906 -1.24544 -19.5726 -0.830713 -1.28053 -19.7154 -0.727707 -1.39375 -20.4966 -0.701853 -1.45185 -20.6681 -0.58344 -1.65915 -21.1544 -0.522572 -1.71889 -21.377 -0.490223 -1.75064 -21.4961 -0.0648898 -0.00299223 -3.49096 -0.208125 -0.419789 -3.69488 -0.591672 -1.23046 -4.13725 -0.711032 -1.47822 -4.27217 -1.07147 -2.22897 -4.82575 -1.44756 -3.03186 -5.28828 -1.46308 -3.07356 -5.3117 -1.50942 -3.244 -5.38901 -0.0961204 0.0173601 -3.95478 -0.566634 -0.280394 -4.2526 -0.209986 0.0961907 -4.29931 -0.224941 0.235138 -4.83906 -0.225995 0.176694 -4.75989 -0.226002 0.176696 -4.7599 -0.296701 0.195046 -4.98523 -0.20282 0.137067 -5.30763 -0.244008 0.213974 -4.88806 -0.296199 -0.311222 -5.08188 -0.374019 0.407021 -5.30753 -0.616325 0.70607 -5.78081 -0.383787 0.44059 -5.47603 -0.618162 0.400208 -5.65595 -0.61817 0.400206 -5.65596 -0.791515 0.393901 -5.81018 -0.443838 0.513913 -6.1173 -0.955773 1.3652 -6.1343 -1.0616 1.53056 -6.1503 -1.59692 2.35341 -6.34098 -2.20334 3.14515 -6.41455 -2.22844 3.18636 -6.4108 -2.35501 3.41536 -6.40514 -0.955773 1.3652 -6.1343 -0.971337 1.24042 -5.78498 -1.0616 1.53056 -6.1503 -1.0691 1.55261 -6.10821 -1.09917 1.70118 -5.89179 -1.0616 1.53056 -6.1503 -0.874638 1.72958 -5.88779 -1.0691 1.55261 -6.10821 -1.34897 1.56547 -6.21494 -2.22844 3.18636 -6.4108 -2.22758 3.19252 -6.38391 -2.22594 3.19519 -6.36868 -0.447329 0.52689 -6.34487 -0.324048 0.0891161 -6.3788 -0.467726 0.524536 -6.59887 -0.515904 0.101026 -6.66235 -0.472491 0.487979 -6.79923 -1.22467 1.1111 -7.01358 -1.75859 1.93084 -7.22081 -1.92611 2.19491 -7.2914 -1.92611 2.19492 -7.2914 -2.39137 2.953 -7.48142 -0.424551 0.323489 -7.48489 -0.30925 -0.0315056 -7.4381 -0.421569 0.175553 -7.94146 -0.755143 -0.0694231 -7.85353 -0.419208 0.0641716 -8.27807 -0.575972 0.407527 -8.50157 -0.419208 0.0641716 -8.27807 -0.0232362 0.0348524 -8.08383 -0.392221 -0.121454 -8.82709 -0.339365 0.14842 -8.95972 -0.339363 0.148429 -8.95972 -0.314817 0.257191 -9.01775 -0.386731 -0.171008 -8.95825 -0.59122 0.161901 -8.82541 -0.372877 -0.246726 -9.21547 -0.488709 -0.433713 -9.4954 -0.372877 -0.246726 -9.21547 -0.533157 0.045196 -8.92508 -0.32365 -0.355569 -9.62384 -0.0477596 -0.509887 -9.91448 -0.316341 -0.37302 -9.68876 -0.106162 -0.206189 -9.94936 -0.310549 -0.41181 -9.91932 -0.305995 -0.567998 -9.5593 -0.454617 -0.401076 -10.3646 0.0326691 -0.149655 -11.2009 0.465236 0.0691651 -12.0756 0.637245 0.190002 -12.441 -0.532799 -0.476967 -10.8899 -0.574283 -0.306226 -10.7855 -0.628842 -0.208535 -10.7255 -0.505566 -0.588623 -11.3017 -0.674719 -0.284505 -11.3244 -0.50979 -0.642066 -11.6516 -0.509793 -0.642073 -11.6516 -0.625647 -0.906387 -11.7114 -0.50979 -0.642066 -11.6516 -0.438508 -0.467416 -11.876 -0.509793 -0.642073 -11.6516 -0.766764 -0.585699 -11.4335 -0.510026 -0.644307 -11.6687 0.213476 -1.26948 -11.9615 0.982158 -1.87427 -12.1697 1.24052 -2.05131 -12.2385 -0.542007 -0.662249 -11.8697 -1.11462 -0.972866 -12.6284 -1.47853 -1.2005 -13.5316 -1.5689 -1.30604 -13.7337 -0.638664 -0.722523 -12.4705 -0.856405 -0.572714 -12.4763 -0.658546 -0.701031 -12.9155 -0.719087 -0.65276 -12.8522 -0.719093 -0.652755 -12.8522 -0.758938 -0.614989 -12.8207 -0.719087 -0.65276 -12.8522 -0.815773 -0.595018 -12.8995 -0.719093 -0.652755 -12.8522 -0.68774 -0.534244 -12.7987 -0.719093 -0.652755 -12.8522 -0.840555 -0.701882 -12.899 -0.661398 -0.690896 -13.0279 -0.77244 -0.907761 -13.0753 -0.781077 -0.922864 -13.0808 -0.661398 -0.690895 -13.0279 -0.661391 -0.690889 -13.0279 -0.569485 -0.517275 -12.8631 -0.661398 -0.690895 -13.0279 -0.665872 -0.689388 -13.0369 -0.661398 -0.690895 -13.0279 -0.669021 -0.688064 -13.0254 -0.661391 -0.690889 -13.0279 -0.656876 -0.697648 -13.0243 -0.668338 -0.705617 -13.4328 -0.591741 -0.97449 -13.3165 -0.74656 -0.721218 -13.8537 -0.584461 -0.798834 -13.8986 -0.778626 -0.736007 -14.0352 -1.6334 -1.043 -14.4537 -2.23927 -1.26479 -14.6708 -0.827407 -0.768057 -14.2955 -0.636017 -0.787526 -14.2614 -0.862009 -0.779124 -14.6816 -1.82962 -1.01612 -14.7686 -2.33082 -1.19574 -14.8468 -0.841824 -0.878717 -15.2099 -0.940416 -0.865829 -15.3548 -0.828449 -0.888947 -15.339 -0.806686 -0.757496 -15.2468 -0.819266 -0.879713 -15.8335 -0.807184 -0.997235 -15.9324 -0.778844 -0.878785 -16.377 -0.546365 -0.81809 -16.3429 -0.546356 -0.818087 -16.3429 -0.069874 -0.725232 -16.3273 -0.778843 -0.878785 -16.377 -0.722384 -0.957394 -16.3354 -0.741581 -0.883983 -16.8814 -0.71789 -0.958352 -16.8607 -0.732259 -0.92329 -17.5142 -0.68934 -0.910775 -17.4933 -0.415476 -0.841304 -17.3109 -0.757669 -0.929166 -17.9803 -0.842258 -0.855509 -17.8843 -0.758291 -0.929967 -18.0141 -0.741106 -0.933937 -18.0103 
</DataArray>
</Points>
<Lines>
<DataArray type="Int32" Name="connectivity" NumberOfComponents="1" format="ascii" >
0 1 2 3 4 5 6 7 8 9 10 11 12 13 14 15 16 17 18 19 20 21 22 23 24 25 26 27 28 29 30 31 32 33 34 35 36 37 38 39 40 41 42 43 44 45 46 47 48 49 50 51 52 53 54 55 56 57 58 59 60 61 62 63 64 65 66 67 68 69 70 71 72 73 74 75 76 77 78 79 80 81 82 83 84 85 86 87 88 89 90 91 92 93 94 95 96 97 98 99 100 101 102 103 104 105 106 107 108 109 110 111 112 113 114 115 116 117 118 119 120 121 122 123 124 125 126 127 128 129 130 131 132 133 134 135 136 137 138 139 140 141 142 143 144 145 146 147 148 149 150 151 152 153 154 155 156 157 158 159 160 161 162 163 164 165 166 167 168 169 170 171 172 173 174 175 176 177 178 179 180 181 182 183 184 185 186 187 188 189 190 191 192 193 194 195 196 197 198 199 200 201 202 203 204 205 206 207 208 209 210 211 212 213 214 
</DataArray>
<DataArray type="Int32" Name="offsets" NumberOfComponents="1" format="ascii" >
57 65 67 69 73 75 77 81 88 90 93 95 97 100 102 104 110 112 114 116 118 122 124 126 128 130 132 134 138 141 143 146 148 150 154 158 160 164 166 168 170 173 176 178 180 182 184 186 189 191 194 196 198 200 204 206 208 211 213 215 
</DataArray>

</Lines>
</Piece>
</PolyData>
</VTKFile>
