<?xml version="1.0"?><VTKFile type="PolyData" version="0.1" byte_order="LittleEndian">
<PolyData>
<Piece NumberOfLines="57" NumberOfPoints="370">
<PointData Scalars=" PointData">
<DataArray type="Float32" Name="time" NumberOfComponents="1" format="ascii" >
0 0.0421442 0.450568 0.845472 1.19233 1.59502 2.08269 2.54041 2.9451 3.36251 3.82547 4.21454 4.65562 5.10198 5.58017 6.04888 6.41029 6.85875 7.28694 7.68188 8.13942 8.60711 8.99049 9.36776 9.79944 10.2631 10.806 11.3639 11.9355 12.3699 12.8794 13.4671 14.0256 14.6194 15 2.69344 2.74826 3.58167 4.38832 5.21924 6.16108 7.07871 7.97367 8.85096 9.82382 10.6178 11.4592 12.4193 13.2715 14.4037 15 10.8918 13.0249 15 11.8753 13.826 15 12.8301 14.7403 15 13.8166 15 14.9386 15 3.12625 3.17296 4.02396 4.9795 5.74606 6.52298 7.3799 8.32649 9.01721 9.84409 10.8616 11.6588 12.6265 13.568 14.4328 15 9.84904 12.3504 15 10.8265 12.7985 15 11.9271 13.9902 15 12.8125 15 13.712 15 14.7068 15 3.54494 3.60529 4.34175 5.37339 6.31652 7.26067 8.10752 9.0562 10.08 11.1737 12.2418 13.3559 14.4022 15 14.6281 15 3.91288 3.97599 4.90886 5.90245 6.85067 7.77565 8.77918 9.92316 10.7991 11.6888 12.8414 14.0828 15 14.9854 15 4.34026 4.38935 5.12509 5.8568 6.60861 7.60897 8.38061 9.09216 10.0014 10.8426 11.7183 12.689 13.477 14.4518 15 12.326 14.4615 15 13.196 15 14.0637 15 14.9578 15 4.85813 4.90587 5.75571 6.57862 7.50189 8.43655 9.33525 10.1857 11.2669 12.1807 13.1915 14.201 15 13.0029 15 13.9914 15 14.951 15 5.34451 5.38818 6.06156 6.791 7.59197 8.37805 9.10128 9.95268 10.6798 11.404 12.2772 13.0813 14.0626 14.9807 15 13.6131 15 14.4143 15 5.77479 5.82214 6.72578 7.65927 8.54009 9.34307 10.147 11.0219 12.0297 13.0033 13.914 14.8731 15 6.21886 6.25577 6.94658 7.6118 8.29128 8.99325 9.83606 10.5182 11.2139 11.997 12.7185 13.4505 14.1672 14.9954 15 11.267 13.6159 15 12.0502 14.2781 15 12.8062 15 13.5801 15 14.3817 15 6.71167 6.76721 7.51843 8.16155 8.93712 9.67058 10.4268 11.4218 12.2376 13.1022 14.0237 15 7.12609 7.1874 8.08954 9.06739 10.0349 11.0313 12.041 13.0113 14.0491 15 7.59618 7.64348 8.46231 9.23848 10.1584 11.0203 11.9257 12.7765 13.6086 14.5884 15 8.0722 8.11345 8.74144 9.34363 9.98295 10.6771 11.3037 11.919 12.5099 13.128 13.6583 14.3037 14.938 15 14.2315 15 14.9707 15 8.58251 8.62866 9.30192 9.94577 10.6061 11.4249 12.2009 13.0503 13.9515 14.7019 15 9.08305 9.14084 10.1474 10.9107 11.7836 12.5579 13.5146 14.3988 15 9.46924 9.52651 10.275 11.0461 11.8167 12.7193 13.6502 14.5604 15 9.94874 10.009 10.8241 11.7452 12.7454 13.495 14.371 15 10.4069 10.4616 11.2654 12.189 12.9956 14.0589 14.9654 15 10.8297 10.8773 11.5594 12.2569 13.068 13.8391 14.6634 15 11.3199 11.3901 12.4957 13.748 15 11.8213 11.8771 12.6886 13.8397 14.8703 15 12.2326 12.2798 13.1415 13.9522 14.7389 15 12.6375 12.6836 13.535 14.6433 15 13.1012 13.1613 13.9054 14.6261 15 13.5997 13.6455 14.4162 15 14.1837 14.2329 14.9973 15 14.7845 14.823 15 
</DataArray>

</PointData>
<CellData Scalars=" CellData">
<DataArray type="Float32" Name="radius" NumberOfComponents="1" format="ascii" >
0.0548673 0.0277312 0.0197759 0.0213645 0.0204246 0.0247367 0.0192142 0.029948 0.0170979 0.0197836 0.0200579 0.0224551 0.0187323 0.0172573 0.0250211 0.0181972 0.027874 0.0194322 0.0341722 0.0189638 0.0203736 0.0217133 0.0192306 0.0240752 0.0213167 0.0200032 0.0186402 0.029017 0.0184869 0.0167125 0.0273713 0.0301361 0.0192443 0.0182314 0.0202073 0.0183447 0.0216768 0.0252178 0.0266038 0.0257356 0.0238428 0.0192663 0.016525 0.0303854 0.0254538 0.0296435 0.0281379 0.025745 0.0274398 0.0249232 0.0275986 0.0234537 0.0235653 0.0278862 0.0291034 0.0264034 0.0283398 
</DataArray>
<DataArray type="Float32" Name="subType" NumberOfComponents="1" format="ascii" >
1 2 3 3 3 3 3 2 3 3 3 3 3 3 2 3 2 3 2 3 3 3 3 2 3 3 3 2 3 3 2 2 3 3 3 3 3 2 2 2 2 3 3 2 2 2 2 2 2 2 2 2 2 2 2 2 2 
</DataArray>
<DataArray type="Float32" Name="creationTime" NumberOfComponents="1" format="ascii" >
0 2.69344 10.8918 11.8753 12.8301 13.8166 14.9386 3.12625 9.84904 10.8265 11.9271 12.8125 13.712 14.7068 3.54494 14.6281 3.91288 14.9854 4.34026 12.326 13.196 14.0637 14.9578 4.85813 13.0029 13.9914 14.951 5.34451 13.6131 14.4143 5.77479 6.21886 11.267 12.0502 12.8062 13.5801 14.3817 6.71167 7.12609 7.59618 8.0722 14.2315 14.9707 8.58251 9.08305 9.46924 9.94874 10.4069 10.8297 11.3199 11.8213 12.2326 12.6375 13.1012 13.5997 14.1837 14.7845 
</DataArray>

</CellData>
<Points>
<DataArray type="Float32" Name="Coordinates" NumberOfComponents="3" format="ascii" >
0 0 -3 -0.000656198 0.00156591 -3.08398 0.0813919 -0.0101194 -3.88973 0.142003 -0.0563773 -4.66235 0.311529 -0.101419 -5.31565 0.484196 -0.180074 -6.07113 0.641871 -0.335482 -6.97872 0.768919 -0.460004 -7.82817 0.712022 -0.613268 -8.57052 0.700752 -0.650534 -9.34661 0.704671 -0.656059 -10.2002 0.602175 -0.745 -10.8979 0.465189 -0.805898 -11.6822 0.299964 -0.887502 -12.4611 0.405406 -1.05996 -13.2854 0.46116 -1.19921 -14.0951 0.586789 -1.29392 -14.7044 0.560524 -1.4011 -15.4704 0.509848 -1.41454 -16.2005 0.44939 -1.49512 -16.8619 0.427921 -1.60398 -17.6218 0.285729 -1.55615 -18.3843 0.168994 -1.51964 -19.0035 0.111383 -1.3938 -19.6038 0.106035 -1.27637 -20.2925 0.17949 -1.10024 -21.0108 0.127695 -0.928931 -21.8526 0.0385427 -0.73427 -22.6998 -0.128671 -0.450266 -23.5205 -0.122441 -0.333152 -24.1748 -0.101745 -0.224725 -24.9387 0.0388942 -0.154202 -25.8043 0.0833191 -0.0884991 -26.6261 -0.0594945 0.138542 -27.4504 -0.129871 0.29212 -27.9734 -0.000656198 0.00156591 -3.08398 -0.0393872 0.0377232 -3.09692 -0.647515 0.567712 -3.25384 -1.23168 1.06986 -3.39056 -1.80708 1.59581 -3.5344 -2.42189 2.21114 -3.3846 -3.00757 2.80098 -3.2383 -3.53167 3.32603 -2.91753 -4.04925 3.84567 -2.65717 -4.56486 4.4059 -2.28583 -4.95363 4.80154 -1.89394 -5.36474 5.02566 -1.36288 -5.83094 5.34391 -0.805484 -6.19923 5.61998 -0.28953 -6.82728 5.94092 0.270104 -7.15087 6.08278 0.574026 -0.0393872 0.0377232 -3.09692 0.281616 0.898409 -3.49211 0.26459 1.59042 -3.96183 -0.647515 0.567712 -3.25384 -1.04982 1.0358 -2.46704 -1.27336 1.2973 -2.03408 -1.23168 1.06986 -3.39056 -1.32251 1.43868 -4.31561 -1.33316 1.48535 -4.43433 -1.80708 1.59581 -3.5344 -2.03892 1.89498 -3.05544 -2.42189 2.21114 -3.3846 -2.41652 2.23467 -3.3646 0.0813919 -0.0101194 -3.88973 0.12683 -0.00566707 -3.87819 0.956643 0.0785611 -3.71482 1.87303 0.201692 -3.56434 2.58023 0.313648 -3.38422 3.30465 0.361245 -3.26012 4.07923 0.397229 -3.06813 4.92361 0.28328 -2.91202 5.52844 0.210162 -2.78903 6.23455 0.0205167 -2.74408 7.05068 -0.320369 -2.73609 7.69539 -0.536814 -2.74326 8.46785 -0.782139 -2.76714 9.17561 -1.08807 -2.70647 9.81878 -1.33664 -2.60175 10.2384 -1.48591 -2.53252 0.12683 -0.00566707 -3.87819 0.734312 -0.707799 -3.50674 1.32557 -1.36557 -3.1588 0.956643 0.0785611 -3.71482 1.49979 -0.698985 -4.03171 2.27568 -1.08739 -4.52632 1.87303 0.201692 -3.56434 2.04754 0.908126 -2.87841 2.10969 1.23506 -2.57203 2.58023 0.313648 -3.38422 3.20316 -0.394434 -3.65787 3.30465 0.361245 -3.26012 3.75414 -0.0519845 -3.4632 4.07923 0.397229 -3.06813 4.13794 0.527044 -3.04612 0.142003 -0.0563773 -4.66235 0.0943047 -0.0687316 -4.64266 -0.409187 -0.431043 -4.47267 -0.979419 -1.02898 -4.14859 -1.60863 -1.42701 -3.86169 -2.23117 -1.78666 -3.54391 -2.79341 -2.08288 -3.26398 -3.34059 -2.43859 -2.86269 -3.80727 -2.47293 -2.19777 -4.36338 -2.53974 -1.55431 -4.85869 -2.62057 -0.90833 -5.27685 -2.65764 -0.183609 -5.68583 -2.71559 0.468957 -5.91964 -2.78004 0.830221 0.0943047 -0.0687316 -4.64266 -0.0761355 -0.0206173 -4.68685 0.311529 -0.101419 -5.31565 0.340378 -0.142352 -5.30252 0.659223 -0.772504 -5.02431 1.06129 -1.40505 -4.75658 1.37512 -2.07439 -4.64476 1.51455 -2.77549 -4.57413 1.66541 -3.52403 -4.49971 1.80606 -4.36462 -4.61051 1.79001 -4.99374 -4.76243 1.74416 -5.61816 -4.93008 1.52643 -6.40257 -5.06912 1.31669 -7.2337 -5.23105 1.2421 -7.84413 -5.38247 0.340378 -0.142352 -5.30252 0.341137 -0.144333 -5.29625 0.484196 -0.180074 -6.07113 0.505722 -0.136315 -6.05408 0.852469 0.431555 -5.67046 1.16749 0.950766 -5.22667 1.59192 1.35892 -4.74472 2.15778 1.82312 -4.07202 2.60129 2.17601 -3.5767 2.99301 2.54437 -3.15493 3.35512 3.02551 -2.54296 3.57238 3.46225 -1.93446 3.74608 3.91575 -1.30188 3.94091 4.41946 -0.62365 4.148 4.89879 -0.171042 4.3418 5.39603 0.476549 4.45545 5.66496 0.837734 0.505722 -0.136315 -6.05408 0.406761 0.80368 -6.3806 0.42194 1.02925 -6.44828 0.852469 0.431555 -5.67046 0.449149 0.471661 -5.03647 1.16749 0.950766 -5.22667 1.64574 1.01807 -5.24247 1.59192 1.35892 -4.74472 1.60372 1.37011 -4.75135 0.641871 -0.335482 -6.97872 0.685114 -0.335329 -6.98139 1.44325 -0.330332 -7.08255 2.16117 -0.349418 -7.20919 2.96551 -0.359395 -7.17599 3.75373 -0.422584 -7.04753 4.50254 -0.481733 -7.14429 5.19188 -0.574936 -7.25994 6.03419 -0.632739 -7.51038 6.73725 -0.559752 -7.69533 7.43464 -0.503519 -8.07072 8.11734 -0.451815 -8.44063 8.66447 -0.349632 -8.67969 0.685114 -0.335329 -6.98139 1.1105 -0.0864225 -7.79515 1.44325 -0.330332 -7.08255 1.72773 -0.0891767 -6.69671 2.16117 -0.349418 -7.20919 2.17269 -0.358494 -7.1965 0.768919 -0.460004 -7.82817 0.73564 -0.489704 -7.82161 0.228677 -0.931411 -7.66708 -0.338361 -1.37341 -7.50749 -0.941968 -1.892 -7.5107 -1.54178 -2.36409 -7.4249 -2.12148 -2.74066 -7.3474 -2.78904 -3.18233 -7.2575 -3.36496 -3.49407 -7.0875 -3.92243 -3.80681 -6.90858 -4.65265 -4.08873 -6.82726 -5.25191 -4.45823 -6.93416 -5.9603 -4.91669 -7.05786 -6.60983 -5.32554 -7.20906 -6.62336 -5.33405 -7.21217 0.73564 -0.489704 -7.82161 0.866424 -1.11029 -8.12346 0.228677 -0.931411 -7.66708 0.0746242 -0.953232 -7.45982 0.712022 -0.613268 -8.57052 0.755336 -0.597063 -8.57334 1.60381 -0.420273 -8.70328 2.4902 -0.380598 -8.76997 3.31267 -0.345686 -8.82935 4.04986 -0.309845 -8.89002 4.7772 -0.247118 -8.91038 5.55936 -0.259958 -8.9035 6.43742 -0.340221 -8.98176 7.20737 -0.58224 -9.21265 7.80374 -0.889443 -9.59338 8.42091 -1.20716 -9.98738 8.50726 -1.2459 -10.0317 0.700752 -0.650534 -9.34661 0.718901 -0.612154 -9.33419 1.05576 0.0993876 -9.10337 1.41019 0.764171 -8.91397 1.78978 1.43319 -8.78277 2.15935 2.12807 -8.69043 2.53014 2.96004 -8.48678 2.79794 3.61625 -8.26971 3.05384 4.2658 -8.01513 3.3236 4.9926 -7.74369 3.56658 5.65149 -7.50229 3.80879 6.30736 -7.25962 4.00161 6.9636 -7.06333 4.35019 7.69074 -7.04013 4.35211 7.69474 -7.04 0.718901 -0.612154 -9.33419 1.22303 0.121514 -9.78981 1.56461 0.504424 -9.96362 1.05576 0.0993876 -9.10337 0.936616 0.580667 -8.23494 0.896317 0.713785 -7.96677 1.41019 0.764171 -8.91397 1.02504 1.23751 -8.62576 1.78978 1.43319 -8.78277 2.4309 1.46636 -8.85275 2.15935 2.12807 -8.69043 2.04592 2.32406 -8.52713 0.704671 -0.656059 -10.2002 0.755025 -0.677264 -10.2074 1.37198 -1.06999 -10.318 1.89648 -1.36731 -10.4814 2.53686 -1.68319 -10.6865 3.13748 -1.92488 -10.9317 3.75963 -2.17061 -11.1494 4.4853 -2.70968 -11.2531 4.93623 -3.21705 -11.5296 5.3666 -3.74438 -11.877 5.82858 -4.28593 -12.2428 6.35075 -4.83396 -12.5889 0.602175 -0.745 -10.8979 0.594263 -0.692915 -10.8964 0.60746 0.0410581 -10.6675 0.733984 0.848706 -10.607 0.715777 1.64304 -10.5418 0.775255 2.44269 -10.4511 0.758491 3.24276 -10.5211 0.713745 3.99318 -10.4197 0.613808 4.7742 -10.2961 0.516891 5.47795 -10.1945 0.465189 -0.805898 -11.6822 0.456153 -0.847447 -11.6646 0.30119 -1.5658 -11.3738 0.325705 -2.21141 -11.018 0.368702 -2.91977 -10.5327 0.39768 -3.56411 -10.0737 0.464876 -4.19895 -9.5634 0.50508 -4.74986 -9.04885 0.496318 -5.37111 -8.67259 0.419384 -6.15866 -8.39024 0.379462 -6.47341 -8.24694 0.299964 -0.887502 -12.4611 0.258303 -0.855918 -12.4484 -0.347684 -0.363037 -12.2278 -0.884593 0.129877 -11.9928 -1.49583 0.620664 -11.8341 -2.15359 1.13359 -11.6543 -2.74462 1.5856 -11.5157 -3.37144 1.94539 -11.4052 -3.94612 2.32432 -11.3438 -4.51504 2.72053 -11.1841 -5.02606 2.97105 -10.9904 -5.62025 3.30098 -10.7514 -6.17771 3.58971 -10.4506 -6.23054 3.61906 -10.4207 0.258303 -0.855918 -12.4484 0.114397 -0.789193 -12.1248 -0.347684 -0.363037 -12.2278 -0.359894 -0.36806 -12.2297 0.405406 -1.05996 -13.2854 0.452182 -1.04467 -13.2832 1.08921 -0.730032 -13.3464 1.69197 -0.431244 -13.3536 2.26672 -0.110165 -13.5263 2.97649 0.278698 -13.7152 3.63199 0.662612 -13.866 4.28316 1.09544 -14.1549 5.00991 1.49275 -14.4152 5.6371 1.79147 -14.5647 5.88345 1.90927 -14.6229 0.46116 -1.19921 -14.0951 0.428699 -1.23861 -14.1075 -0.0651532 -1.92716 -14.4285 -0.249454 -2.50649 -14.7247 -0.400462 -3.20147 -14.9985 -0.380456 -3.70521 -15.4337 -0.529024 -4.28794 -15.9766 -0.670139 -4.78078 -16.5054 -0.723155 -5.16007 -16.8176 0.586789 -1.29392 -14.7044 0.578742 -1.23859 -14.7082 0.368416 -0.552549 -14.8232 0.0809074 0.122881 -14.8946 -0.225109 0.767316 -14.7608 -0.561935 1.49686 -14.5292 -0.887574 2.16638 -14.1253 -1.24631 2.828 -13.8172 -1.46007 3.11302 -13.6646 0.560524 -1.4011 -15.4704 0.503135 -1.40039 -15.4825 -0.281556 -1.35395 -15.5223 -1.14527 -1.28046 -15.6385 -2.00241 -0.91386 -15.637 -2.60086 -0.594916 -15.747 -3.30426 -0.254709 -15.8655 -3.7955 0.0030746 -15.9363 0.509848 -1.41454 -16.2005 0.515664 -1.36192 -16.201 0.689126 -0.610435 -16.2154 0.839714 0.246489 -16.2709 0.949546 0.985389 -16.2193 1.1836 1.92607 -16.1928 1.44857 2.69253 -16.1728 1.45867 2.72153 -16.1736 0.44939 -1.49512 -16.8619 0.401279 -1.50198 -16.8483 -0.282848 -1.60274 -16.6554 -0.989547 -1.70233 -16.5383 -1.80438 -1.71883 -16.3957 -2.56879 -1.78888 -16.3023 -3.37393 -1.79723 -16.1943 -3.69887 -1.80955 -16.1549 0.427921 -1.60398 -17.6218 0.416721 -1.56444 -17.6337 0.241796 -0.945794 -17.8191 0.0564066 -0.251901 -18.0251 -0.199273 0.432623 -18.1117 0.285729 -1.55615 -18.3843 0.315821 -1.52346 -18.3808 0.811337 -1.11942 -18.314 1.43769 -0.517797 -18.0875 2.00909 -0.0185625 -17.8694 2.07898 0.0454557 -17.8427 0.168994 -1.51964 -19.0035 0.185647 -1.47408 -19.0074 0.442377 -0.655188 -19.1977 0.834851 -0.0948764 -19.6373 1.27042 0.424907 -20.015 1.43582 0.57801 -20.134 0.111383 -1.3938 -19.6038 0.13878 -1.4235 -19.6065 0.561384 -2.03292 -19.6345 0.829308 -2.92307 -19.8283 0.898735 -3.21114 -19.8849 0.106035 -1.27637 -20.2925 0.128336 -1.22041 -20.2921 0.42387 -0.543887 -20.3526 0.689501 0.0981947 -20.4825 0.832081 0.425609 -20.5454 0.17949 -1.10024 -21.0108 0.134999 -1.10394 -21.0243 -0.602728 -1.13068 -21.2695 -1.15405 -1.14976 -21.4526 0.127695 -0.928931 -21.8526 0.148801 -0.885941 -21.8405 0.465041 -0.221236 -21.6424 0.466133 -0.218938 -21.6417 0.0385427 -0.73427 -22.6998 0.00100035 -0.745246 -22.6953 -0.166242 -0.809692 -22.6728 
</DataArray>
</Points>
<Lines>
<DataArray type="Int32" Name="connectivity" NumberOfComponents="1" format="ascii" >
0 1 2 3 4 5 6 7 8 9 10 11 12 13 14 15 16 17 18 19 20 21 22 23 24 25 26 27 28 29 30 31 32 33 34 35 36 37 38 39 40 41 42 43 44 45 46 47 48 49 50 51 52 53 54 55 56 57 58 59 60 61 62 63 64 65 66 67 68 69 70 71 72 73 74 75 76 77 78 79 80 81 82 83 84 85 86 87 88 89 90 91 92 93 94 95 96 97 98 99 100 101 102 103 104 105 106 107 108 109 110 111 112 113 114 115 116 117 118 119 120 121 122 123 124 125 126 127 128 129 130 131 132 133 134 135 136 137 138 139 140 141 142 143 144 145 146 147 148 149 150 151 152 153 154 155 156 157 158 159 160 161 162 163 164 165 166 167 168 169 170 171 172 173 174 175 176 177 178 179 180 181 182 183 184 185 186 187 188 189 190 191 192 193 194 195 196 197 198 199 200 201 202 203 204 205 206 207 208 209 210 211 212 213 214 215 216 217 218 219 220 221 222 223 224 225 226 227 228 229 230 231 232 233 234 235 236 237 238 239 240 241 242 243 244 245 246 247 248 249 250 251 252 253 254 255 256 257 258 259 260 261 262 263 264 265 266 267 268 269 270 271 272 273 274 275 276 277 278 279 280 281 282 283 284 285 286 287 288 289 290 291 292 293 294 295 296 297 298 299 300 301 302 303 304 305 306 307 308 309 310 311 312 313 314 315 316 317 318 319 320 321 322 323 324 325 326 327 328 329 330 331 332 333 334 335 336 337 338 339 340 341 342 343 344 345 346 347 348 349 350 351 352 353 354 355 356 357 358 359 360 361 362 363 364 365 366 367 368 369 
</DataArray>
<DataArray type="Int32" Name="offsets" NumberOfComponents="1" format="ascii" >
35 51 54 57 60 62 64 80 83 86 89 91 93 95 109 111 124 126 141 144 146 148 150 163 165 167 169 184 186 188 201 216 219 222 224 226 228 240 250 261 275 277 279 290 299 308 316 324 332 337 343 349 354 359 363 367 370 
</DataArray>

</Lines>
</Piece>
</PolyData>
</VTKFile>
