<?xml version="1.0"?><VTKFile type="PolyData" version="0.1" byte_order="LittleEndian">
<PolyData>
<Piece NumberOfLines="37" NumberOfPoints="344">
<PointData Scalars=" PointData">
<DataArray type="Float32" Name="time" NumberOfComponents="1" format="ascii" >
0 0.813119 0.85629 1.11884 1.36307 1.62781 1.8978 2.14155 2.38706 2.6608 2.94818 3.23013 3.50975 3.793 4.04009 4.30438 4.59949 4.87657 5.15497 5.40915 5.71971 5.98999 6.27717 6.58395 6.88521 7.15428 7.45357 7.77391 8.07763 8.41127 8.70257 9.01078 9.30163 9.61372 9.93771 10.2607 10.5825 10.9186 11.2291 11.5779 11.8956 12.2569 12.6096 12.9439 13.2932 13.6411 13.9733 14.3213 14.6926 15 3.98174 5.39025 6.86397 6.90925 7.71124 8.37754 9.10742 9.75176 10.4908 11.2794 12.0393 12.8346 13.7093 14.4938 15 4.26525 5.68276 7.16642 7.21202 7.8324 8.58911 9.29347 9.92634 10.6846 11.3828 12.1332 12.9583 13.8055 14.6098 15 4.52909 5.99588 7.53051 7.57766 8.36658 9.05345 9.779 10.5347 11.3265 12.0937 12.7965 13.5585 14.4283 15 4.81524 6.27954 7.81078 7.85781 8.53867 9.23274 9.94943 10.7529 11.4697 12.3484 13.0614 13.8483 14.6949 15 5.10723 6.59265 8.14629 8.19401 8.99359 9.7542 10.4718 11.2369 12.0794 12.8212 13.6079 14.5189 15 5.37096 6.83563 8.367 8.41403 9.22381 9.9658 10.6637 11.5549 12.3388 13.0881 13.8937 14.8232 15 5.63673 7.1319 8.69509 8.74311 9.46604 10.239 10.9601 11.8092 12.5764 13.3465 14.1792 15 5.93323 7.43268 8.99921 9.0473 9.76003 10.5349 11.3725 12.1598 12.9264 13.6587 14.5134 15 6.24467 7.67028 9.16119 9.20699 9.91251 10.6369 11.4063 12.1542 12.9077 13.6061 14.4862 15 6.55041 8.02052 9.55744 9.60465 10.2724 11.0379 11.7039 12.3735 13.1121 13.9012 14.6778 15 6.85378 8.19661 9.60008 9.64318 10.2945 11.0258 11.7422 12.4357 13.1175 13.8806 14.6388 15 7.1613 8.65383 10.2139 10.2618 11.0583 11.8909 12.7141 13.4606 14.2512 15 7.42969 8.98307 10.6069 10.6568 11.3765 12.2326 13.0247 13.8822 14.6878 15 7.71693 9.16265 10.6739 10.7203 11.3648 12.0525 12.8663 13.5846 14.3582 15 8.03785 9.46597 10.9597 11.0056 11.7258 12.4331 13.1446 13.9272 14.6672 15 8.33936 9.78047 11.2879 11.3342 12.0448 12.7509 13.4467 14.1707 14.9979 15 8.64248 10.0361 11.493 11.5377 12.1906 12.9251 13.6703 14.4216 15 8.91939 10.5074 12.1675 12.2185 13.0201 13.7818 14.5417 15 9.25794 10.6854 12.178 12.2239 12.938 13.6725 14.3584 15 9.55276 10.9822 12.4768 12.5227 13.2788 13.9295 14.7247 15 9.86621 11.2709 12.7389 12.784 13.5275 14.1695 14.8756 15 10.2013 11.6258 13.1177 13.1635 13.8201 14.4833 15 10.5306 12.0555 13.6494 13.6984 14.5091 15 10.8248 12.3103 13.8658 13.9136 14.7255 15 11.1524 12.5702 14.0525 14.098 14.734 15 11.5032 12.8404 14.238 14.2809 14.9135 15 11.8361 13.3481 14.9301 14.9787 15 12.202 13.7608 15 12.5218 14.0564 15 12.8603 14.3736 15 13.18 14.5699 15 13.5233 14.9632 15 13.88 15 14.2358 15 14.5907 15 14.9616 15 
</DataArray>

</PointData>
<CellData Scalars=" CellData">
<DataArray type="Float32" Name="radius" NumberOfComponents="1" format="ascii" >
0.105103 0.05 0.05 0.05 0.05 0.05 0.05 0.05 0.05 0.05 0.05 0.05 0.05 0.05 0.05 0.05 0.05 0.05 0.05 0.05 0.05 0.05 0.05 0.05 0.05 0.05 0.05 0.05 0.05 0.05 0.05 0.05 0.05 0.05 0.05 0.05 0.05 
</DataArray>
<DataArray type="Float32" Name="subType" NumberOfComponents="1" format="ascii" >
1 2 2 2 2 2 2 2 2 2 2 2 2 2 2 2 2 2 2 2 2 2 2 2 2 2 2 2 2 2 2 2 2 2 2 2 2 
</DataArray>
<DataArray type="Float32" Name="creationTime" NumberOfComponents="1" format="ascii" >
0 3.98174 4.26525 4.52909 4.81524 5.10723 5.37096 5.63673 5.93323 6.24467 6.55041 6.85378 7.1613 7.42969 7.71693 8.03785 8.33936 8.64248 8.91939 9.25794 9.55276 9.86621 10.2013 10.5306 10.8248 11.1524 11.5032 11.8361 12.202 12.5218 12.8603 13.18 13.5233 13.88 14.2358 14.5907 14.9616 
</DataArray>

</CellData>
<Points>
<DataArray type="Float32" Name="Coordinates" NumberOfComponents="3" format="ascii" >
0 0 -3 0.00501762 0.00161171 -3.99999 0.0055115 0.00181961 -4.05252 0.0079653 0.000559858 -4.37084 0.0104875 -0.00125716 -4.6651 0.0320691 -0.00824603 -4.98131 0.0274652 0.0227068 -5.30098 0.0229818 0.0355726 -5.58881 0.0185453 0.0479248 -5.87702 0.00687596 0.037733 -6.19629 -0.00438286 0.030773 -6.5293 -0.0138056 0.0198268 -6.85369 0.0147636 0.0258964 -7.17216 -0.00413213 0.0382085 -7.49312 -0.015518 0.0286367 -7.77157 -0.0129763 0.0202522 -8.06785 -0.0132493 0.0189597 -8.39655 -0.0190332 0.0194581 -8.70297 -0.0264056 0.0172117 -9.00872 -0.0262428 -0.00280252 -9.28542 -0.0219648 -0.0260692 -9.62122 -0.0133776 -0.0605788 -9.90992 -0.0118089 -0.046418 -10.2166 -0.003018 -0.0483888 -10.542 -0.00649313 -0.0446906 -10.8593 -0.00237709 -0.0479188 -11.1407 -0.00479019 -0.0442155 -11.4515 -0.0127827 -0.0409819 -11.7817 -0.0200739 -0.0440737 -12.0923 -0.0223583 -0.0533523 -12.4308 -0.0183105 -0.0362021 -12.7237 -0.02958 -0.0288595 -13.0316 -0.0283272 -0.0253832 -13.3203 -0.0328387 -0.021482 -13.6278 -0.0375668 -0.017429 -13.9445 -0.0258967 -0.0198976 -14.2576 -0.0253069 -0.0195792 -14.5673 -0.0245444 -0.0192678 -14.8882 -0.0213008 -0.0131886 -15.1822 -0.0179016 -0.00704469 -15.5098 -0.0156774 -0.00300771 -15.8059 -0.0172429 0.00031403 -16.1398 -0.0171183 -0.0290609 -16.4615 -0.0318657 -0.0672956 -16.7625 -0.0144786 -0.0908345 -17.0758 -0.00105105 -0.122315 -17.3847 0.0039453 -0.128189 -17.6789 -0.00624868 -0.11865 -17.9843 -0.0254004 -0.123424 -18.307 -0.0351762 -0.126555 -18.5723 0.0055115 0.00181961 -4.05252 -0.410614 -0.857806 -4.34897 -0.800866 -1.54802 -4.95833 -0.812945 -1.56873 -4.97636 -1.03375 -1.95603 -5.25229 -1.19293 -2.28121 -5.47616 -1.36341 -2.62935 -5.71666 -1.57203 -2.91937 -5.88305 -1.76019 -3.27313 -6.07037 -2.01457 -3.63708 -6.1937 -2.2183 -3.9951 -6.32813 -2.4106 -4.36693 -6.47192 -2.57618 -4.79821 -6.57911 -2.70516 -5.17778 -6.68384 -2.76407 -5.42023 -6.76373 0.0079653 0.000559858 -4.37084 -0.165717 -0.900278 -4.76875 -0.392816 -1.82523 -5.07352 -0.398733 -1.85318 -5.08268 -0.479497 -2.23041 -5.20238 -0.545157 -2.64425 -5.44086 -0.714873 -2.98907 -5.65218 -0.856294 -3.13763 -5.97903 -0.996061 -3.32232 -6.36754 -1.10473 -3.48105 -6.7263 -1.21729 -3.63674 -7.10835 -1.31946 -3.83189 -7.51076 -1.4022 -4.04241 -7.90989 -1.48279 -4.23602 -8.27884 -1.53332 -4.32613 -8.45247 0.0104875 -0.00125716 -4.6651 -0.400834 -0.799962 -5.10429 -0.55642 -1.56298 -5.73166 -0.559698 -1.58554 -5.75116 -0.405632 -1.96329 -6.03266 -0.247311 -2.28335 -6.25765 -0.0612858 -2.63589 -6.43535 0.127957 -2.99509 -6.61641 0.311611 -3.33774 -6.85285 0.470503 -3.60905 -7.14717 0.514763 -3.86544 -7.43211 0.567604 -4.12003 -7.74808 0.625524 -4.41462 -8.09105 0.642407 -4.58227 -8.33093 0.0320691 -0.00824603 -4.98131 -0.728421 0.227128 -5.58649 -1.4603 0.621452 -6.14225 -1.48192 0.633271 -6.15936 -1.77683 0.833412 -6.39916 -2.02009 1.04855 -6.6795 -2.26326 1.26376 -6.96709 -2.51572 1.50355 -7.29078 -2.73571 1.74371 -7.54727 -3.0453 1.91645 -7.89454 -3.31946 2.0904 -8.11642 -3.60054 2.26174 -8.38425 -3.92278 2.44334 -8.63266 -4.01985 2.52482 -8.72677 0.0274652 0.0227068 -5.30098 0.74675 0.517929 -5.7882 1.4653 1.01421 -6.27543 1.48463 1.02885 -6.29309 1.77038 1.21091 -6.65579 2.03154 1.28646 -7.02857 2.2378 1.35282 -7.3952 2.37974 1.4411 -7.80679 2.52584 1.53115 -8.25259 2.55048 1.61123 -8.65487 2.61056 1.79779 -9.03308 2.62046 2.00763 -9.46593 2.61532 2.08058 -9.70383 0.0229818 0.0355726 -5.58881 0.912375 0.441173 -5.79968 1.73584 0.906747 -6.12394 1.76083 0.920203 -6.13366 2.18832 1.13066 -6.31538 2.58803 1.30908 -6.44539 2.94897 1.51937 -6.49245 3.45071 1.67042 -6.51069 3.88307 1.7937 -6.52449 4.27439 1.94648 -6.53762 4.69611 2.07669 -6.55067 5.17182 2.20877 -6.60321 5.26139 2.23173 -6.61206 0.0185453 0.0479248 -5.87702 -0.366352 0.882257 -6.27167 -0.781043 1.69168 -6.68744 -0.794293 1.71555 -6.69987 -0.990456 2.07129 -6.88561 -1.14485 2.40127 -7.17824 -1.25182 2.68901 -7.47448 -1.45697 2.92736 -7.8515 -1.6379 3.04212 -8.22813 -1.87382 3.2245 -8.5314 -2.1883 3.42539 -8.78161 -2.50453 3.59875 -9.02002 0.00687596 0.037733 -6.19629 0.643147 -0.598678 -6.63234 1.19989 -1.35543 -6.97492 1.21663 -1.37786 -6.98573 1.47997 -1.69102 -7.14693 1.73303 -2.03762 -7.33376 2.02328 -2.37011 -7.55675 2.28505 -2.67114 -7.77366 2.48283 -2.99164 -7.98619 2.726 -3.29844 -8.08748 2.95151 -3.68409 -8.20279 3.07752 -3.89936 -8.26753 -0.00438286 0.030773 -6.5293 0.547963 0.487542 -7.22664 0.934584 0.916659 -8.04296 0.946167 0.92953 -8.06746 1.08385 1.13305 -8.45259 1.13243 1.34225 -8.85811 1.1857 1.56295 -9.27681 1.08996 1.82396 -9.6337 0.97789 2.07835 -9.9816 0.884605 2.31297 -10.2966 0.78637 2.58456 -10.7005 0.718829 2.72906 -10.9351 -0.0138056 0.0198268 -6.85369 -0.506761 0.807592 -7.22304 -0.592851 1.73147 -7.59591 -0.595484 1.75916 -7.60715 -0.635273 2.14971 -7.75621 -0.675661 2.58789 -7.92502 -0.660958 2.94673 -8.10443 -0.618903 3.28703 -8.30201 -0.568374 3.65418 -8.51517 -0.444352 4.01534 -8.74666 -0.313946 4.36186 -8.96424 -0.272241 4.50962 -9.04876 0.0147636 0.0258964 -7.17216 -0.271116 -0.759783 -7.72078 -0.311774 -1.6973 -8.06632 -0.313449 -1.72517 -8.0773 -0.259522 -2.14142 -8.23494 -0.192483 -2.5774 -8.45362 -0.121466 -2.98572 -8.67776 -0.048347 -3.38816 -8.85525 0.0336666 -3.77286 -9.02602 0.146942 -4.18949 -9.20888 0.300409 -4.58792 -9.36494 0.386195 -4.77337 -9.42406 -0.00413213 0.0382085 -7.49312 0.520011 0.724912 -7.99682 0.743926 1.40683 -8.69314 0.750908 1.42703 -8.71419 0.840416 1.75917 -9.06688 0.891974 2.14832 -9.38126 0.916242 2.44742 -9.76295 0.935608 2.71245 -10.1014 0.921602 3.03377 -10.41 0.896974 3.31659 -10.7097 -0.015518 0.0286367 -7.77157 0.00231384 0.97372 -8.09791 -0.0153481 1.93902 -8.35846 -0.0146152 1.96757 -8.36765 0.0511089 2.31701 -8.60653 0.105126 2.7174 -8.89834 0.120843 3.067 -9.1823 0.163466 3.36725 -9.55018 0.146402 3.69387 -9.84093 0.119819 3.81365 -9.9542 -0.0129763 0.0202522 -8.06785 -0.270866 -0.846194 -8.49536 -0.602184 -1.73902 -8.80047 -0.61224 -1.76569 -8.80983 -0.720493 -2.123 -8.98477 -0.788627 -2.42899 -9.28088 -0.915366 -2.75494 -9.63668 -1.013 -3.06514 -9.91864 -1.14667 -3.45353 -10.1103 -1.24941 -3.7564 -10.2926 -0.0132493 0.0189597 -8.39655 0.664842 -0.632151 -8.7375 1.19153 -1.3316 -9.22059 1.20724 -1.35177 -9.23629 1.41953 -1.69488 -9.46813 1.57706 -1.99989 -9.75449 1.63573 -2.31905 -10.0516 1.61149 -2.63165 -10.4057 1.56498 -2.89931 -10.7479 1.54351 -3.0223 -10.8954 -0.0190332 0.0194581 -8.70297 0.798233 0.336633 -9.18409 1.61613 0.595654 -9.69786 1.641 0.602929 -9.71298 2.00836 0.694176 -9.96558 2.35501 0.80803 -10.2159 2.68013 0.941782 -10.4579 3.03816 1.04627 -10.681 3.43431 1.08291 -10.9582 3.43532 1.08302 -10.9589 -0.0264056 0.0172117 -9.00872 -0.325421 0.859463 -9.45728 -0.475439 1.76232 -9.86018 -0.47936 1.78981 -9.87156 -0.471877 2.18873 -10.04 -0.36325 2.62667 -10.1939 -0.249411 3.03124 -10.4104 -0.125491 3.42657 -10.623 -0.0164006 3.71538 -10.7903 -0.0262428 -0.00280252 -9.28542 -0.909238 -0.0382467 -9.75346 -1.43628 -0.397815 -10.5235 -1.45253 -0.408704 -10.5462 -1.68707 -0.584023 -10.9091 -1.91036 -0.74549 -11.2439 -2.16756 -0.95287 -11.5093 -2.31472 -1.08302 -11.666 -0.0219648 -0.0260692 -9.62122 -0.653356 0.269197 -10.3383 -1.18567 0.686805 -11.0746 -1.20215 0.699764 -11.0961 -1.47588 0.905601 -11.4061 -1.71964 1.12388 -11.736 -1.94235 1.35531 -12.0138 -2.20772 1.48935 -12.265 -0.0133776 -0.0605788 -9.90992 -0.0943659 -0.980891 -10.2926 -0.284547 -1.93338 -10.5305 -0.288567 -1.96268 -10.5356 -0.30894 -2.43489 -10.6574 -0.371552 -2.82597 -10.7678 -0.334303 -3.23224 -11.0419 -0.299722 -3.37669 -11.1192 -0.0118089 -0.046418 -10.2166 -0.698731 0.385614 -10.8009 -1.40381 0.788411 -11.3846 -1.42348 0.80112 -11.4033 -1.76828 0.976385 -11.7023 -2.05968 1.12375 -11.9555 -2.31934 1.22751 -12.3019 -2.36612 1.24504 -12.3611 -0.003018 -0.0483888 -10.542 -0.109635 0.745402 -11.1408 -0.102088 1.55225 -11.7315 -0.10182 1.57627 -11.7495 -0.0754349 1.91079 -12.0098 -0.0418013 2.23811 -12.2709 0.0241148 2.48817 -12.4616 -0.00649313 -0.0446906 -10.8593 0.666318 -0.568369 -11.3819 1.35288 -0.895412 -12.0312 1.3737 -0.905015 -12.0506 1.63585 -1.11721 -12.4072 1.80267 -1.25919 -12.5999 -0.00237709 -0.0479188 -11.1407 0.260232 -0.873342 -11.6404 0.825429 -1.51022 -12.1647 0.843758 -1.52843 -12.18 1.1079 -1.87285 -12.4338 1.20947 -1.96655 -12.528 -0.00479019 -0.0442155 -11.4515 0.617861 -0.40028 -12.1483 1.2123 -0.784787 -12.8546 1.23006 -0.796322 -12.8758 1.45799 -0.94776 -13.1875 1.54524 -1.02351 -13.3136 -0.0127827 -0.0409819 -11.7817 -0.628283 0.613056 -12.2214 -1.24539 1.23478 -12.7037 -1.26474 1.25321 -12.7174 -1.52059 1.57272 -12.8716 -1.55574 1.61542 -12.8924 -0.0200739 -0.0440737 -12.0923 -0.764331 -0.699535 -12.2205 -1.56054 -1.29463 -12.3296 -1.58429 -1.31259 -12.3333 -1.59443 -1.32077 -12.335 -0.0223583 -0.0533523 -12.4308 0.546901 -0.639352 -13.0075 0.893228 -1.0441 -13.5561 -0.0183105 -0.0362021 -12.7237 0.540366 0.473861 -13.3777 0.669255 0.684055 -13.9172 -0.02958 -0.0288595 -13.0316 0.887314 -0.0636407 -13.4292 1.25772 -0.0147097 -13.5753 -0.0283272 -0.0253832 -13.3203 0.691172 0.476218 -13.8007 0.905688 0.633543 -13.9404 -0.0328387 -0.021482 -13.6278 0.571125 0.577164 -14.154 0.585993 0.59254 -14.1669 -0.0375668 -0.017429 -13.9445 -0.622519 -0.363929 -14.2677 -0.0258967 -0.0198976 -14.2576 -0.405898 0.237018 -14.5229 -0.0253069 -0.0195792 -14.5673 -0.0761549 0.236731 -14.7004 -0.0245444 -0.0192678 -14.8882 -0.0490148 -0.0180754 -14.9001 
</DataArray>
</Points>
<Lines>
<DataArray type="Int32" Name="connectivity" NumberOfComponents="1" format="ascii" >
0 1 2 3 4 5 6 7 8 9 10 11 12 13 14 15 16 17 18 19 20 21 22 23 24 25 26 27 28 29 30 31 32 33 34 35 36 37 38 39 40 41 42 43 44 45 46 47 48 49 50 51 52 53 54 55 56 57 58 59 60 61 62 63 64 65 66 67 68 69 70 71 72 73 74 75 76 77 78 79 80 81 82 83 84 85 86 87 88 89 90 91 92 93 94 95 96 97 98 99 100 101 102 103 104 105 106 107 108 109 110 111 112 113 114 115 116 117 118 119 120 121 122 123 124 125 126 127 128 129 130 131 132 133 134 135 136 137 138 139 140 141 142 143 144 145 146 147 148 149 150 151 152 153 154 155 156 157 158 159 160 161 162 163 164 165 166 167 168 169 170 171 172 173 174 175 176 177 178 179 180 181 182 183 184 185 186 187 188 189 190 191 192 193 194 195 196 197 198 199 200 201 202 203 204 205 206 207 208 209 210 211 212 213 214 215 216 217 218 219 220 221 222 223 224 225 226 227 228 229 230 231 232 233 234 235 236 237 238 239 240 241 242 243 244 245 246 247 248 249 250 251 252 253 254 255 256 257 258 259 260 261 262 263 264 265 266 267 268 269 270 271 272 273 274 275 276 277 278 279 280 281 282 283 284 285 286 287 288 289 290 291 292 293 294 295 296 297 298 299 300 301 302 303 304 305 306 307 308 309 310 311 312 313 314 315 316 317 318 319 320 321 322 323 324 325 326 327 328 329 330 331 332 333 334 335 336 337 338 339 340 341 342 343 
</DataArray>
<DataArray type="Int32" Name="offsets" NumberOfComponents="1" format="ascii" >
50 65 80 94 108 121 134 146 158 170 182 194 204 214 224 234 244 253 261 269 277 285 292 298 304 310 316 321 324 327 330 333 336 338 340 342 344 
</DataArray>

</Lines>
</Piece>
</PolyData>
</VTKFile>
