<?xml version="1.0"?><VTKFile type="PolyData" version="0.1" byte_order="LittleEndian">
<PolyData>
<Piece NumberOfLines="2" NumberOfPoints="13">
<PointData Scalars=" PointData">
<DataArray type="Float32" Name="time" NumberOfComponents="1" format="ascii" >
0 0.0421442 0.450568 0.845472 1.19233 1.59502 2.08269 2.54041 2.9451 3 2.69344 2.74826 3 
</DataArray>

</PointData>
<CellData Scalars=" CellData">
<DataArray type="Float32" Name="radius" NumberOfComponents="1" format="ascii" >
0.0548673 0.0277312 
</DataArray>
<DataArray type="Float32" Name="subType" NumberOfComponents="1" format="ascii" >
1 2 
</DataArray>
<DataArray type="Float32" Name="creationTime" NumberOfComponents="1" format="ascii" >
0 2.69344 
</DataArray>

</CellData>
<Points>
<DataArray type="Float32" Name="Coordinates" NumberOfComponents="3" format="ascii" >
0 0 -3 -0.000656198 0.00156591 -3.08398 0.0813919 -0.0101194 -3.88973 0.142003 -0.0563773 -4.66235 0.311529 -0.101419 -5.31565 0.484196 -0.180074 -6.07113 0.641871 -0.335482 -6.97872 0.768919 -0.460004 -7.82817 0.712022 -0.613268 -8.57052 0.69916 -0.635412 -8.66988 -0.000656198 0.00156591 -3.08398 -0.0393872 0.0377232 -3.09692 -0.22499 0.197694 -3.1449 
</DataArray>
</Points>
<Lines>
<DataArray type="Int32" Name="connectivity" NumberOfComponents="1" format="ascii" >
0 1 2 3 4 5 6 7 8 9 10 11 12 
</DataArray>
<DataArray type="Int32" Name="offsets" NumberOfComponents="1" format="ascii" >
10 13 
</DataArray>

</Lines>
</Piece>
</PolyData>
</VTKFile>
