<?xml version="1.0"?><VTKFile type="PolyData" version="0.1" byte_order="LittleEndian">
<PolyData>
<Piece NumberOfLines="41" NumberOfPoints="538">
<PointData Scalars=" PointData">
<DataArray type="Float32" Name="time" NumberOfComponents="1" format="ascii" >
0 0.250348 0.60201 0.955052 1.30949 1.66532 2.02257 2.38124 2.74135 3.10291 3.46592 3.83041 4.19638 4.56385 4.93282 5.30331 5.67533 6.0489 6.42403 6.80073 7.17901 7.55889 7.94038 8.3235 8.70825 9.09466 9.48273 9.87249 10.2639 10.6571 11.052 11.4486 11.847 12.2472 12.6491 13.0529 13.4584 13.8659 14.2751 14.6863 15.0993 15.5142 15.931 16.3498 16.7706 17.1933 17.618 18.0448 18.4735 18.9044 19.3373 19.7723 20.2094 20.6486 21 5.22379 5.56875 5.93929 6.33951 6.77456 7.25112 7.77792 8.36683 9.03449 9.80524 10.7169 11.8326 13.271 15.2983 18.764 21 5.59548 5.94045 6.31099 6.7112 7.14626 7.62281 8.14961 8.73853 9.40618 10.1769 11.0885 12.2043 13.6427 15.67 19.1357 21 5.96872 6.31369 6.68423 7.08444 7.5195 7.99605 8.52285 9.11177 9.77942 10.5502 11.4618 12.5775 14.0159 16.0432 19.509 21 6.34351 6.68848 7.05902 7.45923 7.89429 8.37084 8.89764 9.48656 10.1542 10.925 11.8366 12.9523 14.3907 16.418 19.8838 21 6.71987 7.06484 7.43538 7.83559 8.27065 8.7472 9.274 9.86292 10.5306 11.3013 12.2129 13.3287 14.7671 16.7944 20.2601 21 7.09782 7.44278 7.81332 8.21353 8.64859 9.12514 9.65194 10.2409 10.9085 11.6793 12.5909 13.7066 15.145 17.1723 20.6381 21 7.47735 7.82232 8.19286 8.59307 9.02813 9.50468 10.0315 10.6204 11.2881 12.0588 12.9704 14.0861 15.5245 17.5519 21 7.8585 8.20346 8.574 8.97421 9.40927 9.88582 10.4126 11.0015 11.6692 12.44 13.3516 14.4673 15.9057 17.933 21 8.24126 8.58623 8.95677 9.35698 9.79204 10.2686 10.7954 11.3843 12.052 12.8227 13.7343 14.85 16.2885 18.3158 21 8.62567 8.97063 9.34117 9.74138 10.1764 10.653 11.1798 11.7687 12.4364 13.2071 14.1187 15.2344 16.6729 18.7002 21 9.01172 9.35668 9.72722 10.1274 10.5625 11.039 11.5658 12.1548 12.8224 13.5932 14.5048 15.6205 17.0589 19.0862 21 9.39943 9.7444 10.1149 10.5152 10.9502 11.4268 11.9536 12.5425 13.2101 13.9809 14.8925 16.0082 17.4466 19.4739 21 9.78883 10.1338 10.5043 10.9045 11.3396 11.8162 12.343 12.9319 13.5995 14.3703 15.2819 16.3976 17.836 19.8633 21 10.1799 10.5249 10.8954 11.2956 11.7307 12.2072 12.734 13.323 13.9906 14.7614 15.673 16.7887 18.2271 20.2544 21 10.5727 10.9177 11.2882 11.6884 12.1235 12.6 13.1268 13.7158 14.3834 15.1542 16.0658 17.1815 18.6199 20.6472 21 10.9672 11.3122 11.6827 12.0829 12.518 12.9946 13.5214 14.1103 14.7779 15.5487 16.4603 17.576 19.0144 21 11.3635 11.7085 12.079 12.4792 12.9143 13.3908 13.9176 14.5065 15.1742 15.9449 16.8565 17.9723 19.4107 21 11.7615 12.1065 12.477 12.8772 13.3123 13.7888 14.3156 14.9045 15.5722 16.3429 17.2546 18.3703 19.8087 21 12.1613 12.5062 12.8768 13.277 13.712 14.1886 14.7154 15.3043 15.972 16.7427 17.6543 18.7701 20.2085 21 12.5628 12.9078 13.2783 13.6786 14.1136 14.5902 15.117 15.7059 16.3735 17.1443 18.0559 19.1716 20.61 21 12.9662 13.3112 13.6817 14.0819 14.517 14.9935 15.5203 16.1092 16.7769 17.5477 18.4593 19.575 21 13.3714 13.7163 14.0869 14.4871 14.9222 15.3987 15.9255 16.5144 17.1821 17.9528 18.8644 19.9802 21 13.7784 14.1234 14.4939 14.8941 15.3292 15.8057 16.3325 16.9214 17.5891 18.3598 19.2715 20.3872 21 14.1873 14.5322 14.9028 15.303 15.738 16.2146 16.7414 17.3303 17.998 18.7687 19.6803 20.796 21 14.598 14.943 15.3135 15.7137 16.1488 16.6253 17.1521 17.741 18.4087 19.1794 20.0911 21 15.0106 15.3556 15.7261 16.1263 16.5614 17.0379 17.5647 18.1537 18.8213 19.5921 20.5037 21 15.4251 15.7701 16.1406 16.5408 16.9759 17.4524 17.9793 18.5682 19.2358 20.0066 20.9182 21 15.8416 16.1865 16.5571 16.9573 17.3923 17.8689 18.3957 18.9846 19.6523 20.423 21 16.2599 16.6049 16.9754 17.3757 17.8107 18.2873 18.8141 19.403 20.0706 20.8414 21 16.6803 17.0252 17.3958 17.796 18.231 18.7076 19.2344 19.8233 20.491 21 17.1026 17.4475 17.8181 18.2183 18.6533 19.1299 19.6567 20.2456 20.9133 21 17.5269 17.8718 18.2424 18.6426 19.0776 19.5542 20.081 20.6699 21 17.9532 18.2981 18.6687 19.0689 19.5039 19.9805 20.5073 21 18.3815 18.7265 19.097 19.4972 19.9323 20.4088 20.9356 21 18.8119 19.1568 19.5274 19.9276 20.3627 20.8392 21 19.2443 19.5893 19.9598 20.36 20.7951 21 19.6789 20.0238 20.3944 20.7946 21 20.1155 20.4605 20.831 21 20.5543 20.8993 21 20.9952 21 
</DataArray>

</PointData>
<CellData Scalars=" CellData">
<DataArray type="Float32" Name="radius" NumberOfComponents="1" format="ascii" >
0.13 0.0443867 0.0443477 0.0581744 0.0441656 0.0474765 0.0577011 0.0451138 0.0488265 0.0398432 0.0539231 0.0527022 0.0527426 0.0504559 0.0526226 0.0499837 0.0522573 0.0576543 0.0626177 0.0391843 0.0556971 0.0562127 0.0556746 0.0477942 0.0576119 0.0483027 0.0483717 0.0466311 0.061234 0.0496171 0.0474943 0.0432756 0.0550157 0.0397666 0.0408116 0.0570975 0.053344 0.0540234 0.0485387 0.0498647 0.0575235 
</DataArray>
<DataArray type="Float32" Name="subType" NumberOfComponents="1" format="ascii" >
1 2 2 2 2 2 2 2 2 2 2 2 2 2 2 2 2 2 2 2 2 2 2 2 2 2 2 2 2 2 2 2 2 2 2 2 2 2 2 2 2 
</DataArray>
<DataArray type="Float32" Name="creationTime" NumberOfComponents="1" format="ascii" >
0 5.22379 5.59548 5.96872 6.34351 6.71987 7.09782 7.47735 7.8585 8.24126 8.62567 9.01172 9.39943 9.78883 10.1799 10.5727 10.9672 11.3635 11.7615 12.1613 12.5628 12.9662 13.3714 13.7784 14.1873 14.598 15.0106 15.4251 15.8416 16.2599 16.6803 17.1026 17.5269 17.9532 18.3815 18.8119 19.2443 19.6789 20.1155 20.5543 20.9952 
</DataArray>

</CellData>
<Points>
<DataArray type="Float32" Name="Coordinates" NumberOfComponents="3" format="ascii" >
0 0 -3 0.0155571 -0.0043687 -3.49974 0.0507807 0.000115538 -4.19884 0.0510154 -0.0130774 -4.89871 0.0407175 -0.0455815 -5.59788 0.0207712 -0.0757162 -6.29695 -0.0104753 -0.0635398 -6.99615 -0.045381 -0.0612502 -7.69527 -0.0642859 -0.0536165 -8.39497 -0.0692685 0.0144853 -9.09164 -0.123973 0.0609958 -9.78794 -0.175324 0.0845153 -10.4857 -0.254775 0.0804369 -11.1811 -0.276661 0.0786942 -11.8808 -0.26883 0.0974196 -12.5805 -0.226634 0.123061 -13.2787 -0.146502 0.125969 -13.9741 -0.0832303 0.148599 -14.6709 0.00231052 0.175473 -15.3651 0.0939411 0.212522 -16.0581 0.122229 0.181315 -16.7569 0.128749 0.201296 -17.4565 0.131393 0.214908 -18.1564 0.174493 0.184387 -18.8544 0.19556 0.173786 -19.554 0.182362 0.157581 -20.2537 0.16735 0.139649 -20.9533 0.150297 0.123418 -21.6529 0.146129 0.105178 -22.3527 0.148937 0.0216109 -23.0476 0.164086 -0.0206815 -23.7462 0.170539 -0.0575517 -24.4452 0.165497 -0.0922175 -25.1443 0.13691 -0.129684 -25.8427 0.0112195 -0.0824744 -26.5297 -0.0960139 0.0732471 -27.2037 -0.214604 0.157268 -27.8885 -0.316592 0.252452 -28.5744 -0.418573 0.346729 -29.2605 -0.499511 0.44829 -29.9484 -0.610264 0.521709 -30.6356 -0.718073 0.598991 -31.3229 -0.841318 0.618026 -32.0118 -0.914007 0.57151 -32.7064 -0.984397 0.553857 -33.4026 -0.998006 0.476854 -34.0983 -0.966509 0.395792 -34.7928 -0.99585 0.311903 -35.4872 -1.01199 0.22344 -36.1814 -1.07776 0.130015 -36.872 -1.20037 -0.0381528 -37.5403 -1.2949 -0.205781 -38.2134 -1.32071 -0.4052 -38.8839 -1.37036 -0.590114 -39.5572 -1.40727 -0.748336 -40.0905 0.0155571 -0.0043687 -3.49974 -0.681288 -0.581272 -3.92587 -1.25886 -1.15351 -4.50807 -1.82352 -1.72738 -5.10123 -2.41223 -2.21574 -5.74537 -2.91678 -2.69786 -6.4616 -3.42399 -3.17666 -7.17818 -3.78167 -3.78784 -7.88425 -4.10042 -4.37228 -8.63045 -4.37452 -4.89294 -9.43902 -4.67616 -5.37235 -10.2631 -4.89817 -5.97143 -11.0324 -5.13784 -6.54917 -11.8127 -5.27881 -7.01442 -12.6866 -5.44539 -7.35937 -13.6103 -5.5168 -7.48341 -13.9412 0.0507807 0.000115538 -4.19884 1.02718 0.197447 -4.28666 1.99125 0.39699 -4.462 2.97806 0.386469 -4.62356 3.94551 0.288532 -4.85687 4.89137 0.355017 -5.17456 5.82065 0.359781 -5.54392 6.75132 0.364309 -5.90975 7.67887 0.372025 -6.28338 8.53246 0.25849 -6.7918 9.37092 0.170055 -7.32953 10.1579 0.101076 -7.94268 10.8386 0.165395 -8.67236 11.4965 0.245286 -9.42129 12.131 0.346504 -10.1875 12.3116 0.400625 -10.4351 0.0510154 -0.0130774 -4.89871 0.725312 -0.723234 -5.1012 1.40629 -1.4377 -5.26185 2.04301 -2.19418 -5.41125 2.51414 -3.06016 -5.57893 3.04822 -3.89311 -5.72367 3.52397 -4.73423 -5.98093 4.00662 -5.50263 -6.40118 4.48553 -6.28049 -6.80811 4.92275 -7.06057 -7.25567 5.35123 -7.84828 -7.69829 5.84219 -8.55494 -8.2078 6.34821 -9.25818 -8.70719 6.80366 -9.9073 -9.31646 7.28005 -10.5477 -9.91891 7.39824 -10.7257 -10.0632 0.0407175 -0.0455815 -5.59788 -0.51632 -0.792733 -5.23529 -1.09552 -1.54529 -4.92194 -1.7152 -2.31404 -4.76379 -2.32905 -3.08904 -4.61356 -2.94128 -3.87825 -4.56548 -3.54593 -4.67357 -4.52227 -4.14236 -5.47562 -4.49062 -4.75193 -6.26829 -4.48128 -5.30062 -7.10432 -4.48085 -5.92272 -7.88487 -4.41976 -6.60805 -8.6048 -4.31007 -7.24654 -9.37129 -4.24069 -7.95073 -10.0802 -4.20142 -8.71493 -10.7252 -4.19694 -8.875 -10.8452 -4.19648 0.0207712 -0.0757162 -6.29695 0.882135 0.426756 -6.2223 1.73271 0.945444 -6.13582 2.58631 1.45055 -6.00838 3.46048 1.91774 -5.87587 4.33474 2.38574 -5.74681 5.20887 2.84281 -5.58255 6.06388 3.35315 -5.49028 6.90358 3.89506 -5.45512 7.72461 4.46573 -5.43959 8.58967 4.964 -5.49787 9.47231 5.42338 -5.59745 10.3482 5.89937 -5.67653 11.2614 6.29788 -5.76173 12.1662 6.64937 -6.00225 12.2894 6.69311 -6.04484 -0.0104753 -0.0635398 -6.99615 -0.866071 -0.564171 -7.12777 -1.7579 -0.993753 -7.26957 -2.67927 -1.34968 -7.4257 -3.61905 -1.63173 -7.61876 -4.56018 -1.82625 -7.89523 -5.49809 -1.97653 -8.20787 -6.38349 -2.01089 -8.67141 -7.26096 -2.0356 -9.15042 -8.13185 -2.08706 -9.6392 -9.01087 -2.13123 -10.1139 -9.88951 -2.15896 -10.5906 -10.7347 -2.3331 -11.0959 -11.5527 -2.3887 -11.6684 -12.1944 -2.5109 -12.4256 -12.2397 -2.51736 -12.4783 -0.045381 -0.0612502 -7.69527 -1.03488 -0.148668 -7.58019 -2.02328 -0.246485 -7.464 -3.01937 -0.312903 -7.4057 -4.01078 -0.443497 -7.41299 -5.00584 -0.531534 -7.45875 -5.97692 -0.527761 -7.69749 -6.91859 -0.680929 -7.99716 -7.86681 -0.732029 -8.31063 -8.79839 -0.904825 -8.63048 -9.73781 -0.980344 -8.96481 -10.6717 -1.04345 -9.31686 -11.607 -1.07909 -9.66873 -12.4511 -1.16793 -10.1975 -13.2878 -1.1682 -10.7388 -0.0642859 -0.0536165 -8.39497 0.880213 -0.340894 -8.55433 1.80118 -0.689461 -8.72844 2.71387 -1.05599 -8.90916 3.59274 -1.49761 -9.08958 4.47497 -1.8549 -9.39622 5.3048 -2.28864 -9.74728 6.16153 -2.70393 -10.0532 7.06008 -2.91623 -10.4372 7.98467 -2.96907 -10.8145 8.86316 -2.96735 -11.2923 9.71362 -2.99699 -11.8175 10.5782 -2.97752 -12.3196 11.3858 -2.86308 -12.8981 12.1449 -2.73377 -13.396 -0.0692685 0.0144853 -9.09164 0.791208 -0.482113 -9.20552 1.65453 -0.96986 -9.33504 2.44081 -1.5544 -9.53525 3.21226 -2.15403 -9.74811 4.0037 -2.69369 -10.0351 4.74933 -3.26171 -10.3835 5.50878 -3.80724 -10.738 6.31012 -4.27374 -11.1125 7.1118 -4.73206 -11.4962 7.91028 -5.16925 -11.9101 8.68033 -5.63154 -12.3497 9.46894 -6.03667 -12.8123 10.2826 -6.46726 -13.2029 10.9301 -6.8825 -13.5168 -0.123973 0.0609958 -9.78794 0.498992 -0.670799 -10.0643 0.963614 -1.48205 -10.4193 1.43772 -2.29757 -10.7512 1.87733 -3.02396 -11.2795 2.29805 -3.82165 -11.7115 2.59038 -4.62508 -12.2302 2.66155 -5.45975 -12.7764 2.67351 -6.29173 -13.3311 2.66347 -7.08479 -13.9401 2.65297 -7.88935 -14.5339 2.57662 -8.63643 -15.1942 2.45973 -9.40799 -15.8196 2.4041 -10.0788 -16.5591 2.33963 -10.6057 -17.0709 -0.175324 0.0845153 -10.4857 0.531312 -0.567037 -10.7616 1.28174 -1.17257 -11.0265 1.92569 -1.81816 -11.4371 2.551 -2.45055 -11.8943 3.20567 -3.05772 -12.3446 3.80634 -3.65537 -12.8756 4.37568 -4.27306 -13.4181 4.95281 -4.83766 -14.0082 5.51984 -5.40998 -14.6006 6.03697 -5.94886 -15.2655 6.50118 -6.40707 -16.0235 6.94411 -6.86625 -16.7936 7.3649 -7.32349 -17.5771 7.64138 -7.61838 -18.0681 -0.254775 0.0804369 -11.1811 0.537772 -0.341656 -11.6212 1.30241 -0.762314 -12.1095 2.04019 -1.19043 -12.6314 2.75039 -1.62517 -13.1851 3.44929 -1.99651 -13.7964 4.14231 -2.35844 -14.4199 4.85518 -2.63136 -15.0659 5.54653 -2.92147 -15.7276 6.18506 -3.14565 -16.4638 6.84436 -3.34711 -17.1882 7.50735 -3.51787 -17.9171 8.14965 -3.65135 -18.6719 8.75536 -3.72275 -19.4643 9.12358 -3.73389 -19.8399 -0.276661 0.0786942 -11.8808 0.629141 0.445088 -12.0936 1.53274 0.812314 -12.3141 2.44909 1.15114 -12.5274 3.3685 1.42777 -12.807 4.27211 1.61572 -13.1919 5.18045 1.80494 -13.5649 6.09052 1.99611 -13.9327 7.02786 2.15275 -14.2439 7.97598 2.16876 -14.5614 8.84689 2.19032 -15.0524 9.71608 2.2066 -15.5466 10.5575 2.16009 -16.085 11.4332 2.10751 -16.565 11.7814 2.10969 -16.7751 -0.26883 0.0974196 -12.5805 0.0927391 1.00809 -12.3806 0.411712 1.94204 -12.2194 0.598206 2.91604 -12.0907 0.785621 3.89709 -12.1397 0.99927 4.87312 -12.1813 1.06595 5.86458 -12.2934 1.14705 6.85689 -12.3869 1.21577 7.84337 -12.5357 1.28077 8.83019 -12.6839 1.40553 9.80355 -12.8762 1.46456 10.7628 -13.1527 1.61923 11.7085 -13.4386 1.65441 12.6448 -13.7878 1.66931 12.8948 -13.9064 -0.226634 0.123061 -13.2787 -0.442373 1.06915 -13.5204 -0.657991 2.016 -13.7591 -0.785367 2.94146 -14.1158 -0.92161 3.86218 -14.4815 -0.987151 4.7884 -14.8528 -1.04777 5.71968 -15.212 -1.10413 6.63955 -15.6001 -1.15988 7.56296 -15.9799 -1.26516 8.45945 -16.4102 -1.36855 9.30629 -16.9319 -1.53837 10.1335 -17.4676 -1.61326 10.8602 -18.1504 -1.6915 11.5293 -18.8895 -1.69997 11.6205 -18.9904 -0.146502 0.125969 -13.9741 -1.02372 -0.336649 -14.1025 -1.87239 -0.848144 -14.2371 -2.75 -1.3101 -14.3652 -3.66492 -1.65464 -14.5755 -4.51616 -2.12697 -14.8042 -5.11134 -2.86667 -15.1182 -5.6613 -3.62089 -15.4769 -5.9954 -4.4353 -15.9514 -6.39712 -5.20795 -16.4429 -6.84289 -5.93096 -16.9707 -7.28109 -6.63306 -17.532 -7.64984 -7.33534 -18.1409 -7.97011 -8.02624 -18.7629 -0.0832303 0.148599 -14.6709 0.210835 1.10303 -14.6201 0.476471 2.06698 -14.6043 0.625354 3.03315 -14.8148 0.802724 3.98318 -15.0717 0.951344 4.93549 -15.3382 1.09759 5.86155 -15.6861 1.17023 6.77749 -16.0808 0.933557 7.65034 -16.5075 0.74523 8.54799 -16.906 0.559234 9.43435 -17.33 0.310494 10.3091 -17.7459 0.032642 11.1758 -18.1601 -0.145468 11.847 -18.5904 0.00231052 0.175473 -15.3651 0.999534 0.17492 -15.2907 1.99402 0.119582 -15.3797 2.98723 0.140031 -15.4943 3.97724 0.190211 -15.6261 4.90818 0.471238 -15.8592 5.80904 0.837605 -16.0921 6.71537 1.22614 -16.2582 7.67105 1.51284 -16.3252 8.63281 1.77452 -16.4061 9.60469 2.00094 -16.4707 10.5718 2.23523 -16.5694 11.5476 2.38359 -16.7303 12.1512 2.52639 -16.8709 0.0939411 0.212522 -16.0581 -0.815031 0.367877 -16.4449 -1.69894 0.628069 -16.8335 -2.49725 1.06384 -17.2492 -3.29727 1.49775 -17.6636 -4.07511 1.94733 -18.1027 -4.87005 2.38335 -18.5246 -5.67577 2.73908 -18.9982 -6.51385 3.0943 -19.4122 -7.33609 3.489 -19.8222 -8.11986 3.82208 -20.3464 -8.9113 4.12214 -20.879 -9.70183 4.32396 -21.4572 -10.0543 4.38447 -21.7122 0.122229 0.181315 -16.7569 -0.652726 -0.440786 -16.8684 -1.48372 -0.990455 -16.9539 -2.301 -1.55973 -17.0433 -3.10884 -2.13773 -17.1586 -3.9472 -2.66602 -17.293 -4.74423 -3.24821 -17.4536 -5.51578 -3.8718 -17.5795 -6.19183 -4.58354 -17.7702 -6.83425 -5.32075 -17.9795 -7.51457 -5.95826 -18.3411 -8.19154 -6.59279 -18.7141 -8.83876 -7.25563 -19.0906 -8.97944 -7.40721 -19.1794 0.128749 0.201296 -17.4565 0.836669 0.901313 -17.5505 1.5456 1.58105 -17.7386 2.26367 2.23117 -17.987 2.90868 2.91503 -18.328 3.55888 3.59395 -18.6691 4.20439 4.25121 -19.0581 4.86808 4.74819 -19.6171 5.52433 5.14026 -20.2618 6.17156 5.53629 -20.9131 6.63464 5.8953 -21.7235 7.11132 6.2163 -22.5419 7.57733 6.52488 -23.3614 0.131393 0.214908 -18.1564 1.01004 -0.214387 -18.3654 1.95304 -0.429657 -18.6192 2.8953 -0.649209 -18.8721 3.83118 -0.936454 -19.0761 4.78585 -1.16505 -19.2667 5.73913 -1.3966 -19.4608 6.6918 -1.62922 -19.6565 7.65116 -1.74528 -19.9137 8.54796 -1.84795 -20.3441 9.44254 -1.93154 -20.7831 10.3235 -2.05866 -21.2388 10.9897 -2.15406 -21.5418 0.174493 0.184387 -18.8544 -0.114764 1.04588 -19.2717 -0.393269 1.90649 -19.6981 -0.69911 2.74075 -20.1569 -1.01237 3.56126 -20.635 -1.2869 4.37674 -21.1446 -1.59022 5.18815 -21.6442 -1.9074 5.94981 -22.2092 -2.26009 6.66814 -22.8089 -2.61104 7.3855 -23.4107 -2.95572 8.04562 -24.0781 -3.29281 8.68027 -24.7736 -3.44652 8.96915 -25.0989 0.19556 0.173786 -19.554 0.895959 0.874123 -19.6917 1.63969 1.53014 -19.8202 2.30741 2.16644 -20.2066 2.94008 2.77776 -20.682 3.55429 3.39267 -21.1766 4.22181 3.96839 -21.6488 4.83091 4.53999 -22.1986 5.47047 4.98385 -22.8262 6.09244 5.37211 -23.5062 6.70742 5.7087 -24.2193 7.32279 6.03463 -24.937 7.42048 6.08888 -25.0514 0.182362 0.157581 -20.2537 1.11316 0.312665 -20.5847 2.00409 0.514212 -20.9917 2.8804 0.77433 -21.3972 3.74843 1.02087 -21.8281 4.57016 1.3957 -22.2574 5.40858 1.76969 -22.6538 6.11707 2.25508 -23.1661 6.82457 2.74357 -23.6769 7.514 3.08638 -24.3149 8.20498 3.39961 -24.9664 8.79035 3.63168 -25.5089 0.16735 0.139649 -20.9533 0.533278 -0.790988 -20.95 0.903082 -1.72007 -20.957 1.16249 -2.67713 -21.0864 1.42852 -3.62946 -21.2357 1.73293 -4.55825 -21.4471 2.05657 -5.46165 -21.7284 2.29413 -6.36012 -22.0976 2.40514 -7.2781 -22.4784 2.39703 -8.16406 -22.942 2.37453 -9.02655 -23.4476 2.35991 -9.42676 -23.6984 0.150297 0.123418 -21.6529 -0.428782 0.938288 -21.6785 -1.14153 1.63248 -21.7789 -1.89301 2.25457 -21.9987 -2.61697 2.90087 -22.2398 -3.33658 3.5515 -22.4824 -4.08528 4.18806 -22.6674 -4.80895 4.85579 -22.8419 -5.54537 5.49741 -23.0564 -6.27302 6.10759 -23.3698 -7.05032 6.61362 -23.7436 -7.11355 6.65437 -23.774 0.146129 0.105178 -22.3527 0.947313 0.594507 -22.6971 1.67522 1.15503 -23.0921 2.41596 1.69399 -23.4931 3.17914 2.08373 -24.0085 3.90452 2.34335 -24.646 4.62459 2.59659 -25.2921 5.34653 2.84758 -25.9369 6.03576 3.11544 -26.6101 6.67669 3.31898 -27.3502 7.10341 3.43071 -27.833 0.148937 0.0216109 -23.0476 1.13803 -0.118418 -23.0933 2.11959 -0.198659 -23.2668 3.0981 -0.286655 -23.4532 4.04608 -0.353398 -23.7645 4.95443 -0.562373 -24.1267 5.87047 -0.749361 -24.4816 6.78828 -0.933426 -24.8334 7.669 -1.16664 -25.2456 8.54906 -1.41054 -25.6531 8.71433 -1.44386 -25.7348 0.164086 -0.0206815 -23.7462 1.15363 0.0115601 -23.8868 2.14682 0.0126961 -24.0033 3.11353 -0.0817092 -24.2411 4.02813 -0.300695 -24.581 4.92997 -0.520834 -24.9529 5.74797 -0.870387 -25.4097 6.55927 -1.26146 -25.8442 7.39743 -1.61413 -26.2603 7.9803 -1.84276 -26.5193 0.170539 -0.0575517 -24.4452 -0.281571 -0.947784 -24.5007 -0.733289 -1.83832 -24.5546 -1.21617 -2.70766 -24.6598 -1.65631 -3.59636 -24.7882 -2.02258 -4.49905 -25.014 -2.31044 -5.3912 -25.3622 -2.43362 -6.32214 -25.7059 -2.56352 -7.24107 -26.0783 -2.58126 -7.34981 -26.1269 0.165497 -0.0922175 -25.1443 0.735839 -0.909565 -25.2259 1.32094 -1.71581 -25.3132 1.84533 -2.54815 -25.4927 2.43328 -3.34328 -25.6413 3.03533 -4.13128 -25.7701 3.67871 -4.8742 -25.9549 4.37595 -5.56924 -26.1303 4.7146 -5.92966 -26.2593 0.13691 -0.129684 -25.8427 0.267035 0.803506 -26.1777 0.227049 1.67999 -26.6575 0.283404 2.5833 -27.0828 0.324029 3.49014 -27.5023 0.388224 4.36058 -27.9904 0.438111 5.23441 -28.474 0.517617 5.96687 -28.887 0.0112195 -0.0824744 -26.5297 0.116179 -1.01 -26.8885 0.06092 -1.90898 -27.323 -0.0368693 -2.79662 -27.773 -0.147785 -3.70525 -28.1756 -0.287345 -4.57788 -28.6436 -0.318441 -5.38973 -29.2266 -0.321593 -5.48324 -29.2937 -0.0960139 0.0732471 -27.2037 -0.74173 -0.680391 -27.0809 -1.18775 -1.57445 -27.1225 -1.65338 -2.45744 -27.1817 -2.23061 -3.26279 -27.3167 -2.78497 -4.08792 -27.4256 -2.95854 -4.34985 -27.4633 -0.214604 0.157268 -27.8885 0.659538 0.431078 -28.2896 1.5137 0.660502 -28.7563 2.37338 0.97634 -29.1578 3.22791 1.29345 -29.5691 3.59162 1.44959 -29.7651 -0.316592 0.252452 -28.5744 0.325388 1.00544 -28.7189 1.00806 1.70903 -28.9162 1.61999 2.49295 -29.0211 1.89471 2.88729 -29.0692 -0.418573 0.346729 -29.2605 0.257905 1.0713 -29.3923 1.00279 1.65337 -29.7184 1.32427 1.89939 -29.8692 -0.499511 0.44829 -29.9484 -1.31784 -0.105131 -29.7932 -1.54262 -0.267847 -29.7622 -0.610264 0.521709 -30.6356 -0.622064 0.529752 -30.636 
</DataArray>
</Points>
<Lines>
<DataArray type="Int32" Name="connectivity" NumberOfComponents="1" format="ascii" >
0 1 2 3 4 5 6 7 8 9 10 11 12 13 14 15 16 17 18 19 20 21 22 23 24 25 26 27 28 29 30 31 32 33 34 35 36 37 38 39 40 41 42 43 44 45 46 47 48 49 50 51 52 53 54 55 56 57 58 59 60 61 62 63 64 65 66 67 68 69 70 71 72 73 74 75 76 77 78 79 80 81 82 83 84 85 86 87 88 89 90 91 92 93 94 95 96 97 98 99 100 101 102 103 104 105 106 107 108 109 110 111 112 113 114 115 116 117 118 119 120 121 122 123 124 125 126 127 128 129 130 131 132 133 134 135 136 137 138 139 140 141 142 143 144 145 146 147 148 149 150 151 152 153 154 155 156 157 158 159 160 161 162 163 164 165 166 167 168 169 170 171 172 173 174 175 176 177 178 179 180 181 182 183 184 185 186 187 188 189 190 191 192 193 194 195 196 197 198 199 200 201 202 203 204 205 206 207 208 209 210 211 212 213 214 215 216 217 218 219 220 221 222 223 224 225 226 227 228 229 230 231 232 233 234 235 236 237 238 239 240 241 242 243 244 245 246 247 248 249 250 251 252 253 254 255 256 257 258 259 260 261 262 263 264 265 266 267 268 269 270 271 272 273 274 275 276 277 278 279 280 281 282 283 284 285 286 287 288 289 290 291 292 293 294 295 296 297 298 299 300 301 302 303 304 305 306 307 308 309 310 311 312 313 314 315 316 317 318 319 320 321 322 323 324 325 326 327 328 329 330 331 332 333 334 335 336 337 338 339 340 341 342 343 344 345 346 347 348 349 350 351 352 353 354 355 356 357 358 359 360 361 362 363 364 365 366 367 368 369 370 371 372 373 374 375 376 377 378 379 380 381 382 383 384 385 386 387 388 389 390 391 392 393 394 395 396 397 398 399 400 401 402 403 404 405 406 407 408 409 410 411 412 413 414 415 416 417 418 419 420 421 422 423 424 425 426 427 428 429 430 431 432 433 434 435 436 437 438 439 440 441 442 443 444 445 446 447 448 449 450 451 452 453 454 455 456 457 458 459 460 461 462 463 464 465 466 467 468 469 470 471 472 473 474 475 476 477 478 479 480 481 482 483 484 485 486 487 488 489 490 491 492 493 494 495 496 497 498 499 500 501 502 503 504 505 506 507 508 509 510 511 512 513 514 515 516 517 518 519 520 521 522 523 524 525 526 527 528 529 530 531 532 533 534 535 536 537 
</DataArray>
<DataArray type="Int32" Name="offsets" NumberOfComponents="1" format="ascii" >
55 71 87 103 119 135 151 166 181 196 211 226 241 256 271 286 300 314 328 342 356 369 382 395 408 420 432 444 455 466 476 486 495 503 511 518 524 529 533 536 538 
</DataArray>

</Lines>
</Piece>
</PolyData>
</VTKFile>
