<?xml version="1.0"?><VTKFile type="PolyData" version="0.1" byte_order="LittleEndian">
<PolyData>
<Piece NumberOfLines="48" NumberOfPoints="326">
<PointData Scalars=" PointData">
<DataArray type="Float32" Name="time" NumberOfComponents="1" format="ascii" >
0 0.143921 0.299858 0.457144 0.615822 0.762604 0.90478 1.06896 1.21812 1.39289 1.57564 1.70295 1.85739 2.02675 2.19891 2.32585 2.44568 2.59446 2.76034 2.89979 3.07741 3.23481 3.39362 3.55701 3.68861 3.86049 4.00967 4.16739 4.30298 4.47637 4.62788 4.76986 4.94241 5.10324 5.25783 5.4231 5.59567 5.74016 5.86784 6.03884 6.18842 6.35136 6.53999 6.7262 6.89406 7.05999 7.21789 7.38674 7.55538 7.74876 7.89204 8.05648 8.19979 8.35157 8.54225 8.70397 8.89373 9.05653 9.20188 9.35134 9.49909 9.68709 9.86747 10.046 10.177 10.3304 10.496 10.665 10.8286 11.0266 11.2156 11.3625 11.5399 11.7254 11.8932 12.09 12.3008 12.5019 12.6726 12.8629 13.0537 13.2485 13.4307 13.6161 13.8023 13.9927 14.1774 14.3532 14.5301 14.7179 14.9162 15 7.72663 9.19063 10.8558 12.7863 15 7.89993 9.8316 12.0287 14.5758 15 8.07478 9.25984 10.6077 12.1704 14.0295 15 8.25122 9.50773 10.9369 12.5937 14.565 15 8.41447 9.83479 11.4503 13.3232 15 8.57263 9.88234 11.372 13.099 15 8.75532 10.2209 11.8879 13.8205 15 8.92134 10.5978 12.5046 14.7153 15 9.1159 10.8601 12.844 15 9.3194 10.8287 12.5454 14.5356 15 9.46121 10.9999 12.7499 14.7788 15 9.63328 10.9596 12.4681 14.217 15 9.822 11.2694 12.9156 14.8242 15 10.0139 11.3236 12.8131 14.5401 15 10.1554 11.4812 12.989 14.7372 15 10.2891 11.9517 13.8427 15 10.455 11.757 13.2378 14.9547 15 10.6401 12.1389 13.8436 15 10.7957 12.4632 14.3598 15 10.994 12.356 13.9052 15 11.1697 12.4691 13.9469 15 11.3471 12.9477 14.7682 15 11.5296 13.0298 14.736 15 11.6767 13.1652 14.8583 15 11.8688 13.182 14.6757 15 12.0356 13.5035 15 12.2119 13.632 15 12.3636 13.6857 15 12.5576 14.0386 15 12.7272 14.2007 15 12.8861 14.5618 15 13.0793 14.806 15 13.2594 15 13.4326 14.6861 15 13.6178 14.9613 15 13.8113 15 13.9733 15 14.1165 15 14.3083 15 14.4761 15 14.659 15 14.8708 15 7 7.12188 7.24798 7.37597 7.50227 7.62057 7.7431 7.88125 8.00572 8.12449 8.2522 8.3677 8.51439 8.65768 8.79238 8.94756 9.08081 9.19697 9.34533 9.47554 9.61554 9.75108 9.88658 10.02 10.1285 10.2473 10.3794 10.5346 10.6679 10.8055 10.9374 11.0732 11.2267 11.3466 11.4703 11.6036 11.7544 11.8882 12.0247 12.1526 12.2932 12.4536 12.5959 12.7648 12.918 13.0506 13.2133 13.3531 13.4985 13.642 13.8036 13.9375 14.0796 14.2201 14.3805 14.5234 14.6893 14.847 15 14.6559 15 14.798 15 14.9422 15 14 14.1387 14.2734 14.3752 14.5051 14.6343 14.7602 14.8831 15 
</DataArray>

</PointData>
<CellData Scalars=" CellData">
<DataArray type="Float32" Name="radius" NumberOfComponents="1" format="ascii" >
0.146454 0.0487213 0.0477486 0.0511903 0.0552933 0.0558205 0.049025 0.0433618 0.0479162 0.0539891 0.0461646 0.0442374 0.0547709 0.0540132 0.0539564 0.0472958 0.0529635 0.0437392 0.0506644 0.0493971 0.0554591 0.0513994 0.0546153 0.0550573 0.0520594 0.0611852 0.0563977 0.0490682 0.0519857 0.0532389 0.0474398 0.057433 0.0478022 0.0486305 0.0555692 0.0504205 0.0466382 0.0574145 0.0444757 0.0487786 0.0426966 0.0513726 0.0448015 0.124476 0.0477594 0.0616848 0.0553522 0.126365 
</DataArray>
<DataArray type="Float32" Name="subType" NumberOfComponents="1" format="ascii" >
1 2 2 2 2 2 2 2 2 2 2 2 2 2 2 2 2 2 2 2 2 2 2 2 2 2 2 2 2 2 2 2 2 2 2 2 2 2 2 2 2 2 2 4 2 2 2 4 
</DataArray>
<DataArray type="Float32" Name="creationTime" NumberOfComponents="1" format="ascii" >
0 7.72663 7.89993 8.07478 8.25122 8.41447 8.57263 8.75532 8.92134 9.1159 9.3194 9.46121 9.63328 9.822 10.0139 10.1554 10.2891 10.455 10.6401 10.7957 10.994 11.1697 11.3471 11.5296 11.6767 11.8688 12.0356 12.2119 12.3636 12.5576 12.7272 12.8861 13.0793 13.2594 13.4326 13.6178 13.8113 13.9733 14.1165 14.3083 14.4761 14.659 14.8708 7 14.6559 14.798 14.9422 14 
</DataArray>

</CellData>
<Points>
<DataArray type="Float32" Name="Coordinates" NumberOfComponents="3" format="ascii" >
0 0 -3 -0.366738 0.0825494 -3.29938 -0.775544 0.182982 -3.60397 -1.19244 0.253561 -3.9117 -1.60503 0.257814 -4.23862 -1.9863 0.261598 -4.53985 -2.3565 0.300197 -4.82639 -2.79268 0.343647 -5.14394 -3.19513 0.396279 -5.41972 -3.66389 0.467058 -5.7427 -4.13395 0.57229 -6.0976 -4.45857 0.638233 -6.34916 -4.85184 0.708382 -6.65578 -5.28135 0.784749 -6.99232 -5.71816 0.904278 -7.31963 -6.05135 0.98856 -7.54527 -6.37676 1.05574 -7.74451 -6.77657 1.13843 -7.99726 -7.22713 1.21865 -8.27276 -7.618 1.28173 -8.48261 -8.09403 1.38093 -8.77904 -8.49603 1.44685 -9.07498 -8.91603 1.48146 -9.35663 -9.37136 1.48874 -9.60842 -9.74312 1.5107 -9.79874 -10.1888 1.59802 -10.1002 -10.5793 1.67673 -10.3536 -10.9929 1.7665 -10.6159 -11.3527 1.84597 -10.8323 -11.811 1.94759 -11.1096 -12.1967 2.05562 -11.3656 -12.5623 2.13559 -11.6054 -12.9565 2.29859 -11.935 -13.3269 2.46198 -12.2306 -13.6837 2.6129 -12.5154 -14.06 2.76918 -12.8268 -14.4577 2.8739 -13.1678 -14.784 2.96035 -13.4598 -15.0705 3.04025 -13.7177 -15.4385 3.14021 -14.0802 -15.7586 3.24668 -14.3917 -16.1309 3.29149 -14.7211 -16.5252 3.35524 -15.1367 -16.9041 3.41926 -15.5544 -17.2358 3.48118 -15.9372 -17.573 3.54064 -16.306 -17.9006 3.61989 -16.6448 -18.2488 3.69133 -17.0104 -18.5677 3.7529 -17.401 -18.9627 3.80752 -17.8237 -19.2521 3.82851 -18.1404 -19.5831 3.85394 -18.5034 -19.8712 3.85665 -18.8196 -20.1729 3.85981 -19.1563 -20.5497 3.88445 -19.5788 -20.82 3.88327 -19.9748 -21.1316 3.89795 -20.4413 -21.3952 3.89642 -20.8428 -21.6282 3.89349 -21.2017 -21.8349 3.89037 -21.589 -22.0322 3.88856 -21.9746 -22.2532 3.86063 -22.4774 -22.4353 3.82768 -22.97 -22.5964 3.83718 -23.4638 -22.6781 3.85908 -23.8346 -22.7682 3.87676 -24.2697 -22.8487 3.85301 -24.7413 -22.902 3.81164 -25.2239 -22.9557 3.75223 -25.688 -22.9862 3.64617 -26.2455 -22.9748 3.57584 -26.782 -22.9842 3.55034 -27.2008 -22.9913 3.53426 -27.7063 -22.9985 3.5176 -28.2334 -23.0247 3.49768 -28.7079 -23.0618 3.47681 -29.2631 -23.0718 3.45407 -29.8573 -23.0759 3.43601 -30.4226 -23.0901 3.43358 -30.9013 -23.1134 3.46116 -31.4325 -23.1549 3.50213 -31.9618 -23.1547 3.52451 -32.5037 -23.1404 3.56464 -33.0078 -23.1342 3.6016 -33.5199 -23.1014 3.60465 -34.0329 -23.0721 3.60869 -34.5567 -23.0413 3.62116 -35.0632 -23.002 3.62356 -35.5434 -22.9742 3.61932 -36.0262 -22.9415 3.61921 -36.5373 -22.8951 3.60558 -37.0743 -22.8774 3.61629 -37.301 -0.366738 0.0825494 -3.29938 -0.980958 -0.171048 -2.5521 -1.74936 -0.54277 -2.03116 -2.56098 -0.833289 -1.52434 -3.19991 -0.95508 -0.808707 -0.775544 0.182982 -3.60397 -1.19848 -0.720064 -3.52892 -1.59984 -1.63005 -3.42483 -2.13282 -2.46796 -3.30719 -2.21784 -2.59272 -3.29323 -1.19244 0.253561 -3.9117 -1.83639 0.079441 -3.16671 -2.51461 -0.0868699 -2.45092 -3.19339 -0.24387 -1.73356 -3.85212 -0.33666 -0.986929 -4.1239 -0.418621 -0.635822 -1.60503 0.257814 -4.23862 -1.58623 -0.700357 -3.95304 -1.62293 -1.64912 -3.63919 -1.77154 -2.58009 -3.30571 -1.91781 -3.51055 -2.96979 -1.94712 -3.6934 -2.90453 -1.9863 0.261598 -4.53985 -2.67436 0.514381 -3.85965 -3.34796 0.735405 -3.15437 -4.0744 1.003 -2.52138 -4.59182 1.26617 -2.01568 -2.3565 0.300197 -4.82639 -3.02831 0.531654 -4.12275 -3.64202 0.768181 -3.36948 -4.26601 0.971664 -2.61501 -4.92458 1.15756 -1.98292 -2.79268 0.343647 -5.14394 -2.2486 0.656413 -5.92249 -1.75747 0.994241 -6.72541 -1.15515 1.37565 -7.42664 -0.819609 1.58918 -7.78685 -3.19513 0.396279 -5.41972 -3.36337 1.36397 -5.23192 -3.49969 2.33725 -5.04712 -3.72606 3.29422 -4.86556 -3.74908 3.40584 -4.83657 -3.66389 0.467058 -5.7427 -3.73934 0.110786 -6.67403 -3.80525 -0.255623 -7.60215 -3.68915 -0.596695 -8.4725 -4.13395 0.57229 -6.0976 -4.12435 1.49786 -5.71914 -4.23193 2.41535 -5.33622 -4.38598 3.33603 -4.97757 -4.40438 3.5273 -4.88967 -4.45857 0.638233 -6.34916 -5.17065 0.074626 -5.93048 -5.87606 -0.539628 -5.57681 -6.61344 -1.13501 -5.25776 -6.68732 -1.19545 -5.229 -4.85184 0.708382 -6.65578 -4.95042 1.69091 -6.49792 -5.12647 2.67325 -6.56128 -5.38253 3.63989 -6.56726 -5.4932 4.02259 -6.55133 -5.28135 0.784749 -6.99232 -5.7739 0.983864 -6.14512 -6.2625 1.23647 -5.30997 -6.79886 1.5388 -4.52199 -6.84562 1.56201 -4.45573 -5.71816 0.904278 -7.31963 -5.89368 1.78777 -6.88531 -6.12914 2.67474 -6.48801 -6.42916 3.53378 -6.07324 -6.49916 3.7411 -5.97331 -6.05135 0.98856 -7.54527 -5.63866 1.89169 -7.42676 -5.14359 2.75927 -7.47383 -4.59928 3.59722 -7.51337 -4.5261 3.71307 -7.51677 -6.37676 1.05574 -7.74451 -5.79485 1.66886 -8.27879 -5.21461 2.28347 -8.81319 -4.90719 2.64995 -9.07987 -6.77657 1.13843 -7.99726 -6.97261 1.79979 -7.27326 -7.27261 2.41854 -6.54721 -7.61173 3.03033 -5.83257 -7.61982 3.04523 -5.81514 -7.22713 1.21865 -8.27276 -6.7987 1.33721 -9.16852 -6.40138 1.48742 -10.0738 -6.15354 1.57117 -10.6186 -7.618 1.28173 -8.48261 -8.24075 0.877866 -7.81248 -8.86479 0.467515 -7.14751 -9.06656 0.337377 -6.955 -8.09403 1.38093 -8.77904 -8.61805 1.68524 -7.98355 -9.15461 1.95311 -7.18333 -9.49783 2.11834 -6.68355 -8.49603 1.44685 -9.07498 -7.92613 1.48812 -9.89566 -7.37102 1.50823 -10.7272 -7.01971 1.52159 -11.254 -8.91603 1.48146 -9.35663 -8.814 0.940024 -10.1912 -8.70317 0.431934 -11.0453 -8.68829 0.372471 -11.1459 -9.37136 1.48874 -9.60842 -9.45546 2.40846 -9.99187 -9.52557 3.33168 -10.3697 -9.53417 3.46301 -10.4252 -9.74312 1.5107 -9.79874 -10.0849 2.44308 -9.91643 -10.5227 3.339 -9.99159 -10.5574 3.40803 -9.99945 -10.1888 1.59802 -10.1002 -10.8503 1.13126 -9.51321 -11.5214 0.652833 -8.94687 -11.6558 0.559146 -8.83289 -10.5793 1.67673 -10.3536 -10.6105 0.690979 -10.5189 -10.5258 -0.18078 -10.7367 -10.9929 1.7665 -10.6159 -10.7136 1.11734 -11.3234 -10.4702 0.564459 -11.9295 -11.3527 1.84597 -10.8323 -10.9538 2.4048 -11.5593 -10.5686 2.87028 -12.2012 -11.811 1.94759 -11.1096 -12.1006 1.12875 -11.6052 -12.2689 0.644752 -11.8926 -12.1967 2.05562 -11.3656 -12.4072 1.17134 -10.9487 -12.5126 0.720528 -10.7762 -12.5623 2.13559 -11.6054 -12.4875 1.47563 -12.353 -12.4688 1.31662 -12.5347 -12.9565 2.29859 -11.935 -13.2786 3.1528 -11.5267 -13.3058 3.24411 -11.4826 -13.3269 2.46198 -12.2306 -13.9077 2.38098 -11.4648 -13.6837 2.6129 -12.5154 -12.8674 3.00992 -12.9349 -12.6795 3.09748 -13.0394 -14.06 2.76918 -12.8268 -13.4603 2.70741 -13.6246 -13.444 2.70614 -13.6461 -14.4577 2.8739 -13.1678 -14.9057 2.56675 -12.979 -14.784 2.96035 -13.4598 -14.4914 2.68986 -13.9573 -15.0705 3.04025 -13.7177 -14.7935 2.91832 -14.1287 -15.4385 3.14021 -14.0802 -15.1526 3.53299 -14.2892 -15.7586 3.24668 -14.3917 -15.7994 3.607 -14.3826 -16.1309 3.29149 -14.7211 -16.155 3.56701 -14.7624 -16.5252 3.35524 -15.1367 -16.4996 3.28005 -15.1683 0 0 -3 0.364225 -0.139555 -3.26836 0.74527 -0.263108 -3.54864 1.13645 -0.390036 -3.8245 1.52199 -0.512855 -4.09675 1.88117 -0.629344 -4.35224 2.24008 -0.753991 -4.63115 2.60148 -0.912468 -4.98537 2.91576 -0.998647 -5.33344 3.20461 -1.09683 -5.66977 3.50544 -1.20758 -6.03681 3.78403 -1.29563 -6.36566 4.10979 -1.43735 -6.79531 4.42905 -1.52787 -7.22553 4.73878 -1.61165 -7.62149 5.04777 -1.71854 -8.10756 5.28945 -1.74823 -8.54639 5.4874 -1.76591 -8.93515 5.688 -1.81689 -9.45173 5.8632 -1.86308 -9.90414 6.03175 -1.96525 -10.3884 6.19503 -1.97305 -10.8664 6.31089 -1.95909 -11.3565 6.39587 -1.90051 -11.8407 6.44562 -1.83967 -12.2348 6.51566 -1.75388 -12.6599 6.5486 -1.66224 -13.1376 6.62371 -1.59657 -13.6999 6.68996 -1.54213 -14.182 6.71529 -1.50965 -14.6844 6.70767 -1.50828 -15.167 6.69938 -1.50789 -15.6624 6.6881 -1.50921 -16.2212 6.65503 -1.49326 -16.6552 6.64463 -1.50905 -17.1034 6.62697 -1.52907 -17.5852 6.60914 -1.55357 -18.1288 6.59193 -1.57243 -18.6102 6.55886 -1.60339 -19.0986 6.54478 -1.6448 -19.5555 6.51912 -1.62963 -20.0578 6.53105 -1.60382 -20.63 6.5574 -1.66526 -21.1327 6.53263 -1.71796 -21.7301 6.51521 -1.75818 -22.2712 6.50054 -1.7941 -22.7386 6.47848 -1.84856 -23.3099 6.49108 -1.87871 -23.8008 6.50277 -1.91106 -24.3105 6.51619 -1.94279 -24.8122 6.53534 -1.9947 -25.3744 6.53525 -2.01281 -25.8409 6.54926 -1.99569 -26.3348 6.55907 -1.97864 -26.8222 6.55711 -1.95952 -27.3777 6.59566 -1.94039 -27.8696 6.64953 -1.93774 -28.4388 6.69255 -1.94873 -28.9793 6.7585 -1.9615 -29.4998 0.364225 -0.139555 -3.26836 0.308925 -0.0840694 -3.44268 0.74527 -0.263108 -3.54864 0.704567 -0.197303 -3.68425 1.13645 -0.390036 -3.8245 1.11823 -0.387273 -3.86201 0 0 -3 0.440243 0.0968609 -3.31939 0.862245 0.216237 -3.62582 1.17973 0.295386 -3.86251 1.59168 0.376333 -4.15911 1.99866 0.467866 -4.45309 2.38877 0.574599 -4.74053 2.75526 0.659837 -5.04377 3.10135 0.739427 -5.33429 
</DataArray>
</Points>
<Lines>
<DataArray type="Int32" Name="connectivity" NumberOfComponents="1" format="ascii" >
0 1 2 3 4 5 6 7 8 9 10 11 12 13 14 15 16 17 18 19 20 21 22 23 24 25 26 27 28 29 30 31 32 33 34 35 36 37 38 39 40 41 42 43 44 45 46 47 48 49 50 51 52 53 54 55 56 57 58 59 60 61 62 63 64 65 66 67 68 69 70 71 72 73 74 75 76 77 78 79 80 81 82 83 84 85 86 87 88 89 90 91 92 93 94 95 96 97 98 99 100 101 102 103 104 105 106 107 108 109 110 111 112 113 114 115 116 117 118 119 120 121 122 123 124 125 126 127 128 129 130 131 132 133 134 135 136 137 138 139 140 141 142 143 144 145 146 147 148 149 150 151 152 153 154 155 156 157 158 159 160 161 162 163 164 165 166 167 168 169 170 171 172 173 174 175 176 177 178 179 180 181 182 183 184 185 186 187 188 189 190 191 192 193 194 195 196 197 198 199 200 201 202 203 204 205 206 207 208 209 210 211 212 213 214 215 216 217 218 219 220 221 222 223 224 225 226 227 228 229 230 231 232 233 234 235 236 237 238 239 240 241 242 243 244 245 246 247 248 249 250 251 252 253 254 255 256 257 258 259 260 261 262 263 264 265 266 267 268 269 270 271 272 273 274 275 276 277 278 279 280 281 282 283 284 285 286 287 288 289 290 291 292 293 294 295 296 297 298 299 300 301 302 303 304 305 306 307 308 309 310 311 312 313 314 315 316 317 318 319 320 321 322 323 324 325 
</DataArray>
<DataArray type="Int32" Name="offsets" NumberOfComponents="1" format="ascii" >
92 97 102 108 114 119 124 129 134 138 143 148 153 158 163 168 172 177 181 185 189 193 197 201 205 209 212 215 218 221 224 227 230 232 235 238 240 242 244 246 248 250 252 311 313 315 317 326 
</DataArray>

</Lines>
</Piece>
</PolyData>
</VTKFile>
