<?xml version="1.0"?><VTKFile type="PolyData" version="0.1" byte_order="LittleEndian">
<PolyData>
<Piece NumberOfLines="10" NumberOfPoints="42">
<PointData Scalars=" PointData">
<DataArray type="Float32" Name="time" NumberOfComponents="1" format="ascii" >
0 0.211339 0.669815 1.15391 1.63312 2.10717 2.60524 3.10031 3.6065 4.10913 4.6331 5.17115 5.68843 6 1.6473 3.05104 4.62029 6 2.12414 3.33951 4.69817 6 2.6279 3.76764 5.04176 6 3.12683 4.28508 5.5799 6 3.62066 4.74506 6 4.1398 5.54267 6 4.65611 6 5.18432 6 5.70914 6 
</DataArray>

</PointData>
<CellData Scalars=" CellData">
<DataArray type="Float32" Name="radius" NumberOfComponents="1" format="ascii" >
0.0388418 0.0272101 0.0278283 0.026074 0.0237808 0.0309707 0.0310928 0.0265405 0.026586 0.0358169 
</DataArray>
<DataArray type="Float32" Name="subType" NumberOfComponents="1" format="ascii" >
1 2 2 2 2 2 2 2 2 2 
</DataArray>
<DataArray type="Float32" Name="creationTime" NumberOfComponents="1" format="ascii" >
0 1.6473 2.12414 2.6279 3.12683 3.62066 4.1398 4.65611 5.18432 5.70914 
</DataArray>

</CellData>
<Points>
<DataArray type="Float32" Name="Coordinates" NumberOfComponents="3" format="ascii" >
0 0 -3 -0.0303927 -0.014203 -3.4125 -0.067346 -0.0560172 -4.30043 -0.0639298 -0.0733862 -5.22771 -0.0665776 -0.0834685 -6.13379 -0.0367042 -0.164589 -7.01442 -0.0164863 -0.252444 -7.92744 -0.0516247 -0.338573 -8.82235 -0.0832203 -0.354449 -9.72916 0.00926339 -0.579948 -10.5839 0.112832 -0.641563 -11.4897 0.249757 -0.715317 -12.4014 0.430091 -0.734191 -13.2589 0.525263 -0.768389 -13.771 -0.0303927 -0.014203 -3.4125 0.74591 0.599623 -3.55592 1.68752 0.926494 -3.63675 2.45095 1.10491 -3.70532 -0.067346 -0.0560172 -4.30043 -0.780487 0.644571 -4.27583 -1.44726 1.3692 -4.44997 -2.13754 1.82437 -4.66273 -0.0639298 -0.0733862 -5.22771 0.908461 -0.255916 -5.3731 1.85087 -0.442436 -5.65071 2.39328 -0.678832 -5.98213 -0.0665776 -0.0834685 -6.13379 0.487189 0.731608 -6.30407 1.10952 1.46234 -6.58467 1.28132 1.69388 -6.6674 -0.0367042 -0.164589 -7.01442 -0.748494 0.537358 -6.9894 -1.43871 1.24988 -6.87588 -0.0164863 -0.252444 -7.92744 -0.8601 -0.78522 -7.99427 -1.12519 -0.933478 -8.0033 -0.0516247 -0.338573 -8.82235 -0.812089 -0.593929 -8.64802 -0.0832203 -0.354449 -9.72916 -0.346132 0.296631 -9.78567 0.00926339 -0.579948 -10.5839 0.24952 -0.574854 -10.4931 
</DataArray>
</Points>
<Lines>
<DataArray type="Int32" Name="connectivity" NumberOfComponents="1" format="ascii" >
0 1 2 3 4 5 6 7 8 9 10 11 12 13 14 15 16 17 18 19 20 21 22 23 24 25 26 27 28 29 30 31 32 33 34 35 36 37 38 39 40 41 
</DataArray>
<DataArray type="Int32" Name="offsets" NumberOfComponents="1" format="ascii" >
14 18 22 26 30 33 36 38 40 42 
</DataArray>

</Lines>
</Piece>
</PolyData>
</VTKFile>
