<?xml version="1.0"?><VTKFile type="PolyData" version="0.1" byte_order="LittleEndian">
<PolyData>
<Piece NumberOfLines="43" NumberOfPoints="352">
<PointData Scalars=" PointData">
<DataArray type="Float32" Name="time" NumberOfComponents="1" format="ascii" >
0 0.113636 0.227273 0.340909 0.363636 0.477273 0.590909 0.704545 0.818182 0.909091 1.02273 1.13636 1.25 1.36364 1.45455 1.56818 1.68182 1.79545 1.90909 2 2.11364 2.22727 2.34091 2.45455 2.54545 2.65909 2.77273 2.88636 3 3.09091 3.20455 3.31818 3.43182 3.54545 3.63636 3.75 3.86364 3.97727 4.09091 4.18182 4.29545 4.40909 4.52273 4.63636 4.72727 4.84091 4.95455 5.06818 5.18182 5.27273 5.38636 5.5 5.61364 5.72727 5.81818 5.93182 6.04545 6.15909 6.27273 6.36364 6.47727 6.59091 6.70455 6.81818 6.90909 7.02273 7.13636 7.25 7.36364 7.45455 7.56818 7.68182 7.79545 7.90909 8 8.11364 8.22727 8.34091 8.45455 8.54545 8.65909 8.77273 8.88636 9 9.09091 9.20455 9.31818 9.43182 9.54545 9.63636 9.75 9.86364 9.97727 10 0.636364 1.26136 1.88636 2.51136 2.63636 3.26136 3.88636 4.51136 5.13636 5.76136 6.38636 7.01136 7.63636 8.26136 8.88636 9.51136 10 3.38636 4.63636 5.88636 7.13636 7.38636 5.88636 7.13636 8.38636 9.63636 9.88636 8.38636 9.63636 10 1.18182 1.80682 2.43182 3.05682 3.18182 3.80682 4.43182 5.05682 5.68182 6.30682 6.93182 7.55682 8.18182 8.80682 9.43182 10 3.93182 5.18182 6.43182 7.68182 7.93182 6.43182 7.68182 8.93182 10 8.93182 10 1.72727 2.35227 2.97727 3.60227 3.72727 4.35227 4.97727 5.60227 6.22727 6.85227 7.47727 8.10227 8.72727 9.35227 9.97727 10 4.47727 5.72727 6.97727 8.22727 8.47727 6.97727 8.22727 9.47727 10 9.47727 10 2.27273 2.89773 3.52273 4.14773 4.27273 4.89773 5.52273 6.14773 6.77273 7.39773 8.02273 8.64773 9.27273 9.89773 10 5.02273 6.27273 7.52273 8.77273 9.02273 7.52273 8.77273 10 2.81818 3.44318 4.06818 4.69318 4.81818 5.44318 6.06818 6.69318 7.31818 7.94318 8.56818 9.19318 9.81818 10 5.56818 6.81818 8.06818 9.31818 9.56818 8.06818 9.31818 10 3.36364 3.98864 4.61364 5.23864 5.36364 5.98864 6.61364 7.23864 7.86364 8.48864 9.11364 9.73864 10 6.11364 7.36364 8.61364 9.86364 10 8.61364 9.86364 10 3.90909 4.53409 5.15909 5.78409 5.90909 6.53409 7.15909 7.78409 8.40909 9.03409 9.65909 10 6.65909 7.90909 9.15909 10 9.15909 10 4.45455 5.07955 5.70455 6.32955 6.45455 7.07955 7.70455 8.32955 8.95455 9.57955 10 7.20455 8.45455 9.70455 10 9.70455 10 5 5.625 6.25 6.875 7 7.625 8.25 8.875 9.5 10 7.75 9 10 5.54545 6.17045 6.79545 7.42045 7.54545 8.17045 8.79545 9.42045 10 8.29545 9.54545 10 6.09091 6.71591 7.34091 7.96591 8.09091 8.71591 9.34091 9.96591 10 8.84091 10 6.63636 7.26136 7.88636 8.51136 8.63636 9.26136 9.88636 10 9.38636 10 7.18182 7.80682 8.43182 9.05682 9.18182 9.80682 10 9.93182 10 7.72727 8.35227 8.97727 9.60227 9.72727 10 8.27273 8.89773 9.52273 10 8.81818 9.44318 10 9.36364 9.98864 10 9.90909 10 
</DataArray>

</PointData>
<CellData Scalars=" CellData">
<DataArray type="Float32" Name="radius" NumberOfComponents="1" format="ascii" >
0.05 0.03 0.02 0.02 0.02 0.03 0.02 0.02 0.02 0.03 0.02 0.02 0.02 0.03 0.02 0.02 0.03 0.02 0.02 0.03 0.02 0.02 0.03 0.02 0.02 0.03 0.02 0.02 0.03 0.02 0.03 0.02 0.03 0.02 0.03 0.02 0.03 0.02 0.03 0.03 0.03 0.03 0.03 
</DataArray>
<DataArray type="Float32" Name="subType" NumberOfComponents="1" format="ascii" >
1 2 3 3 3 2 3 3 3 2 3 3 3 2 3 3 2 3 3 2 3 3 2 3 3 2 3 3 2 3 2 3 2 3 2 3 2 3 2 2 2 2 2 
</DataArray>
<DataArray type="Float32" Name="creationTime" NumberOfComponents="1" format="ascii" >
0 0.636364 3.38636 5.88636 8.38636 1.18182 3.93182 6.43182 8.93182 1.72727 4.47727 6.97727 9.47727 2.27273 5.02273 7.52273 2.81818 5.56818 8.06818 3.36364 6.11364 8.61364 3.90909 6.65909 9.15909 4.45455 7.20455 9.70455 5 7.75 5.54545 8.29545 6.09091 8.84091 6.63636 9.38636 7.18182 9.93182 7.72727 8.27273 8.81818 9.36364 9.90909 
</DataArray>

</CellData>
<Points>
<DataArray type="Float32" Name="Coordinates" NumberOfComponents="3" format="ascii" >
0 0 -3 0 0 -3.25 0 0 -3.5 0 0 -3.75 0 0 -3.8 0 0 -4.05 0 0 -4.3 0 0 -4.55 0 0 -4.8 0 0 -5 0 0 -5.25 0 0 -5.5 0 0 -5.75 0 0 -6 0 0 -6.2 0 0 -6.45 0 0 -6.7 0 0 -6.95 0 0 -7.2 0 0 -7.4 0 0 -7.65 0 0 -7.9 0 0 -8.15 0 0 -8.4 0 0 -8.6 0 0 -8.85 0 0 -9.1 0 0 -9.35 0 0 -9.6 0 0 -9.8 0 0 -10.05 0 0 -10.3 0 0 -10.55 0 0 -10.8 0 0 -11 0 0 -11.25 0 0 -11.5 0 0 -11.75 0 0 -12 0 0 -12.2 0 0 -12.45 0 0 -12.7 0 0 -12.95 0 0 -13.2 0 0 -13.4 0 0 -13.65 0 0 -13.9 0 0 -14.15 0 0 -14.4 0 0 -14.6 0 0 -14.85 0 0 -15.1 0 0 -15.35 0 0 -15.6 0 0 -15.8 0 0 -16.05 0 0 -16.3 0 0 -16.55 0 0 -16.8 0 0 -17 0 0 -17.25 0 0 -17.5 0 0 -17.75 0 0 -18 0 0 -18.2 0 0 -18.45 0 0 -18.7 0 0 -18.95 0 0 -19.2 0 0 -19.4 0 0 -19.65 0 0 -19.9 0 0 -20.15 0 0 -20.4 0 0 -20.6 0 0 -20.85 0 0 -21.1 0 0 -21.35 0 0 -21.6 0 0 -21.8 0 0 -22.05 0 0 -22.3 0 0 -22.55 0 0 -22.8 0 0 -23 0 0 -23.25 0 0 -23.5 0 0 -23.75 0 0 -24 0 0 -24.2 0 0 -24.45 0 0 -24.7 0 0 -24.95 0 0 -25 0 0 -3.8 -0.231471 -0.0267338 -3.89059 -0.462942 -0.0534675 -3.98118 -0.694413 -0.0802013 -4.07177 -0.740707 -0.085548 -4.08989 -0.972179 -0.112282 -4.18048 -1.20365 -0.139016 -4.27107 -1.43512 -0.165749 -4.36165 -1.66659 -0.192483 -4.45224 -1.89806 -0.219217 -4.54283 -2.12953 -0.245951 -4.63342 -2.361 -0.272684 -4.72401 -2.59248 -0.299418 -4.8146 -2.82395 -0.326152 -4.90519 -3.05542 -0.352886 -4.99578 -3.28689 -0.379619 -5.08637 -3.46786 -0.40052 -5.15719 -0.740707 -0.085548 -4.08989 -0.92455 0.00716168 -3.94809 -1.10839 0.0998714 -3.80629 -1.29223 0.192581 -3.66449 -1.329 0.211123 -3.63613 -1.66659 -0.192483 -4.45224 -1.74715 -0.427791 -4.47756 -1.8277 -0.6631 -4.50288 -1.90825 -0.898408 -4.5282 -1.92436 -0.94547 -4.53326 -2.59248 -0.299418 -4.8146 -2.71998 -0.0876351 -4.8519 -2.75707 -0.0260254 -4.86275 0 0 -5 -0.105798 0.207606 -5.09059 -0.211595 0.415213 -5.18118 -0.317393 0.622819 -5.27177 -0.338552 0.664341 -5.28989 -0.44435 0.871947 -5.38048 -0.550147 1.07955 -5.47107 -0.655945 1.28716 -5.56165 -0.761742 1.49477 -5.65224 -0.86754 1.70237 -5.74283 -0.973337 1.90998 -5.83342 -1.07913 2.11759 -5.92401 -1.18493 2.32519 -6.0146 -1.29073 2.5328 -6.10519 -1.39653 2.74041 -6.19578 -1.49271 2.92914 -6.27813 -0.338552 0.664341 -5.28989 -0.199533 0.796321 -5.45037 -0.0605131 0.928302 -5.61085 0.0785064 1.06028 -5.77133 0.10631 1.08668 -5.80343 -0.761742 1.49477 -5.65224 -1.01149 1.50228 -5.64394 -1.26124 1.50979 -5.63565 -1.47466 1.5162 -5.62855 -1.18493 2.32519 -6.0146 -1.052 2.46492 -6.1065 0 0 -6.2 0.068906 0.222588 -6.29059 0.137812 0.445176 -6.38118 0.206718 0.667765 -6.47177 0.220499 0.712282 -6.48989 0.289405 0.934871 -6.58048 0.358311 1.15746 -6.67107 0.427217 1.38005 -6.76165 0.496123 1.60264 -6.85224 0.565029 1.82522 -6.94283 0.633935 2.04781 -7.03342 0.702841 2.2704 -7.12401 0.771747 2.49299 -7.2146 0.840653 2.71558 -7.30519 0.909559 2.93816 -7.39578 0.912065 2.94626 -7.39907 0.220499 0.712282 -6.48989 0.0503703 0.894585 -6.47194 -0.119759 1.07689 -6.454 -0.289887 1.25919 -6.43606 -0.323913 1.29565 -6.43247 0.496123 1.60264 -6.85224 0.432333 1.64809 -7.08966 0.368543 1.69355 -7.32707 0.341867 1.71256 -7.42635 0.771747 2.49299 -7.2146 0.783146 2.56932 -7.14408 0 0 -7.4 0.230203 -0.0360572 -7.49059 0.460406 -0.0721143 -7.58118 0.690609 -0.108171 -7.67177 0.73665 -0.115383 -7.68989 0.966853 -0.15144 -7.78048 1.19706 -0.187497 -7.87107 1.42726 -0.223554 -7.96165 1.65746 -0.259611 -8.05224 1.88766 -0.295669 -8.14283 2.11787 -0.331726 -8.23342 2.34807 -0.367783 -8.32401 2.57827 -0.40384 -8.4146 2.80848 -0.439897 -8.50519 2.84615 -0.445798 -8.52001 0.73665 -0.115383 -7.68989 0.76984 -0.0549445 -7.93019 0.80303 0.00549385 -8.17049 0.83622 0.0659322 -8.4108 0.842858 0.0780199 -8.45886 1.65746 -0.259611 -8.05224 1.84532 -0.184718 -7.90527 2.02976 -0.111186 -7.76097 0 0 -8.6 0.129535 -0.193686 -8.69059 0.259071 -0.387372 -8.78118 0.388606 -0.581057 -8.87177 0.414513 -0.619794 -8.88989 0.544048 -0.81348 -8.98048 0.673583 -1.00717 -9.07107 0.803119 -1.20085 -9.16165 0.932654 -1.39454 -9.25224 1.06219 -1.58822 -9.34283 1.19172 -1.78191 -9.43342 1.32126 -1.97559 -9.52401 1.45079 -2.16928 -9.6146 1.48848 -2.22563 -9.64096 0.414513 -0.619794 -8.88989 0.571791 -0.730044 -8.72986 0.729069 -0.840294 -8.56983 0.886348 -0.950543 -8.40981 0.917803 -0.972593 -8.3778 0.932654 -1.39454 -9.25224 0.94626 -1.59537 -9.10398 0.953681 -1.70492 -9.02312 0 0 -9.8 -0.0397026 -0.229602 -9.89059 -0.0794053 -0.459205 -9.98118 -0.119108 -0.688807 -10.0718 -0.127048 -0.734728 -10.0899 -0.166751 -0.96433 -10.1805 -0.206454 -1.19393 -10.2711 -0.246156 -1.42353 -10.3617 -0.285859 -1.65314 -10.4522 -0.325562 -1.88274 -10.5428 -0.365264 -2.11234 -10.6334 -0.404967 -2.34194 -10.724 -0.42157 -2.43796 -10.7619 -0.127048 -0.734728 -10.0899 0.0763389 -0.858251 -10.1665 0.279726 -0.981775 -10.2432 0.483114 -1.1053 -10.3198 0.505301 -1.11877 -10.3282 -0.285859 -1.65314 -10.4522 -0.0957912 -1.81384 -10.4288 -0.0750565 -1.83137 -10.4263 0 0 -11 -0.216458 -0.0862525 -11.0906 -0.432916 -0.172505 -11.1812 -0.649374 -0.258757 -11.2718 -0.692666 -0.276008 -11.2899 -0.909124 -0.36226 -11.3805 -1.12558 -0.448513 -11.4711 -1.34204 -0.534765 -11.5617 -1.5585 -0.621018 -11.6522 -1.77496 -0.70727 -11.7428 -1.99141 -0.793523 -11.8334 -2.10948 -0.84057 -11.8828 -0.692666 -0.276008 -11.2899 -0.749673 -0.511862 -11.2297 -0.806681 -0.747716 -11.1695 -0.845032 -0.906382 -11.129 -1.5585 -0.621018 -11.6522 -1.5705 -0.788152 -11.6666 0 0 -12.2 -0.225642 -0.0581325 -12.2906 -0.451283 -0.116265 -12.3812 -0.676925 -0.174398 -12.4718 -0.722053 -0.186024 -12.4899 -0.947695 -0.244157 -12.5805 -1.17334 -0.302289 -12.6711 -1.39898 -0.360422 -12.7617 -1.62462 -0.418554 -12.8522 -1.85026 -0.476687 -12.9428 -2.00206 -0.515794 -13.0038 -0.722053 -0.186024 -12.4899 -0.728423 -0.375181 -12.6532 -0.734794 -0.564338 -12.8166 -0.736299 -0.609048 -12.8552 -1.62462 -0.418554 -12.8522 -1.66127 -0.445647 -12.8146 0 0 -13.4 0.224544 0.0622373 -13.4906 0.449088 0.124475 -13.5812 0.673632 0.186712 -13.6718 0.718541 0.199159 -13.6899 0.943085 0.261397 -13.7805 1.16763 0.323634 -13.8711 1.39217 0.385871 -13.9617 1.61672 0.448109 -14.0522 1.79635 0.497898 -14.1247 0.718541 0.199159 -13.6899 0.838883 0.0196264 -13.8155 0.935156 -0.124 -13.916 0 0 -14.6 0.2034 0.113674 -14.6906 0.406801 0.227348 -14.7812 0.610201 0.341022 -14.8718 0.650882 0.363757 -14.8899 0.854282 0.477431 -14.9805 1.05768 0.591105 -15.0711 1.26108 0.704779 -15.1617 1.44969 0.810186 -15.2457 0.650882 0.363757 -14.8899 0.768408 0.518423 -14.7325 0.811145 0.574665 -14.6753 0 0 -15.8 -0.232765 -0.0106678 -15.8906 -0.465531 -0.0213357 -15.9812 -0.698296 -0.0320035 -16.0718 -0.744849 -0.0341371 -16.0899 -0.977615 -0.0448049 -16.1805 -1.21038 -0.0554728 -16.2711 -1.44315 -0.0661406 -16.3617 -1.45584 -0.0667225 -16.3666 -0.744849 -0.0341371 -16.0899 -0.764516 -0.0163105 -16.3202 0 0 -17 0.150875 -0.177568 -17.0906 0.30175 -0.355136 -17.1812 0.452625 -0.532703 -17.2718 0.4828 -0.568217 -17.2899 0.633674 -0.745785 -17.3805 0.784549 -0.923353 -17.4711 0.811981 -0.955638 -17.4875 0.4828 -0.568217 -17.2899 0.476345 -0.587213 -17.411 0 0 -18.2 -0.232452 -0.016107 -18.2906 -0.464905 -0.032214 -18.3812 -0.697357 -0.048321 -18.4718 -0.743848 -0.0515424 -18.4899 -0.9763 -0.0676494 -18.5805 -1.04815 -0.072628 -18.6085 -0.743848 -0.0515424 -18.4899 -0.753274 -0.0441119 -18.4834 0 0 -19.4 -0.119134 -0.200251 -19.4906 -0.238268 -0.400503 -19.5812 -0.357402 -0.600754 -19.6718 -0.381229 -0.640804 -19.6899 -0.433215 -0.728187 -19.7294 0 0 -20.6 0.0769822 -0.219926 -20.6906 0.153964 -0.439851 -20.7812 0.212751 -0.607795 -20.8504 0 0 -21.8 0.0933782 -0.213481 -21.8906 0.17657 -0.403673 -21.9713 0 0 -23 -0.218298 -0.0814837 -23.0906 -0.222267 -0.0829653 -23.0922 0 0 -24.2 0.0271957 -0.0202258 -24.2132 
</DataArray>
</Points>
<Lines>
<DataArray type="Int32" Name="connectivity" NumberOfComponents="1" format="ascii" >
0 1 2 3 4 5 6 7 8 9 10 11 12 13 14 15 16 17 18 19 20 21 22 23 24 25 26 27 28 29 30 31 32 33 34 35 36 37 38 39 40 41 42 43 44 45 46 47 48 49 50 51 52 53 54 55 56 57 58 59 60 61 62 63 64 65 66 67 68 69 70 71 72 73 74 75 76 77 78 79 80 81 82 83 84 85 86 87 88 89 90 91 92 93 94 95 96 97 98 99 100 101 102 103 104 105 106 107 108 109 110 111 112 113 114 115 116 117 118 119 120 121 122 123 124 125 126 127 128 129 130 131 132 133 134 135 136 137 138 139 140 141 142 143 144 145 146 147 148 149 150 151 152 153 154 155 156 157 158 159 160 161 162 163 164 165 166 167 168 169 170 171 172 173 174 175 176 177 178 179 180 181 182 183 184 185 186 187 188 189 190 191 192 193 194 195 196 197 198 199 200 201 202 203 204 205 206 207 208 209 210 211 212 213 214 215 216 217 218 219 220 221 222 223 224 225 226 227 228 229 230 231 232 233 234 235 236 237 238 239 240 241 242 243 244 245 246 247 248 249 250 251 252 253 254 255 256 257 258 259 260 261 262 263 264 265 266 267 268 269 270 271 272 273 274 275 276 277 278 279 280 281 282 283 284 285 286 287 288 289 290 291 292 293 294 295 296 297 298 299 300 301 302 303 304 305 306 307 308 309 310 311 312 313 314 315 316 317 318 319 320 321 322 323 324 325 326 327 328 329 330 331 332 333 334 335 336 337 338 339 340 341 342 343 344 345 346 347 348 349 350 351 
</DataArray>
<DataArray type="Int32" Name="offsets" NumberOfComponents="1" format="ascii" >
94 111 116 121 124 140 145 149 151 167 172 176 178 193 198 201 215 220 223 236 241 244 256 260 262 273 277 279 289 292 301 304 313 315 323 325 332 334 340 344 347 350 352 
</DataArray>

</Lines>
</Piece>
</PolyData>
</VTKFile>
