<?xml version="1.0"?><VTKFile type="PolyData" version="0.1" byte_order="LittleEndian">
<PolyData>
<Piece NumberOfLines="19" NumberOfPoints="145">
<PointData Scalars=" PointData">
<DataArray type="Float32" Name="time" NumberOfComponents="1" format="ascii" >
0 0.0421442 0.450568 0.845472 1.19233 1.59502 2.08269 2.54041 2.9451 3.36251 3.82547 4.21454 4.65562 5.10198 5.58017 6.04888 6.41029 6.85875 7.28694 7.68188 8.13942 8.60711 8.99049 9.36776 9.79944 10 2.69344 2.74826 3.58167 4.38832 5.21924 6.16108 7.07871 7.97367 8.85096 9.82382 10 3.12625 3.17296 4.02396 4.9795 5.74606 6.52298 7.3799 8.32649 9.01721 9.84409 10 9.84904 10 3.54494 3.60529 4.34175 5.37339 6.31652 7.26067 8.10752 9.0562 10 3.91288 3.97599 4.90886 5.90245 6.85067 7.77565 8.77918 9.92316 10 4.34026 4.38935 5.12509 5.8568 6.60861 7.60897 8.38061 9.09216 10 4.85813 4.90587 5.75571 6.57862 7.50189 8.43655 9.33525 10 5.34451 5.38818 6.06156 6.791 7.59197 8.37805 9.10128 9.95268 10 5.77479 5.82214 6.72578 7.65927 8.54009 9.34307 10 6.21886 6.25577 6.94658 7.6118 8.29128 8.99325 9.83606 10 6.71167 6.76721 7.51843 8.16155 8.93712 9.67058 10 7.12609 7.1874 8.08954 9.06739 10 7.59618 7.64348 8.46231 9.23848 10 8.0722 8.11345 8.74144 9.34363 9.98295 10 8.58251 8.62866 9.30192 9.94577 10 9.08305 9.14084 10 9.46924 9.52651 10 9.94874 10 
</DataArray>

</PointData>
<CellData Scalars=" CellData">
<DataArray type="Float32" Name="radius" NumberOfComponents="1" format="ascii" >
0.0548673 0.0277312 0.029948 0.0170979 0.0250211 0.027874 0.0341722 0.0240752 0.029017 0.0273713 0.0301361 0.0252178 0.0266038 0.0257356 0.0238428 0.0303854 0.0254538 0.0296435 0.0281379 
</DataArray>
<DataArray type="Float32" Name="subType" NumberOfComponents="1" format="ascii" >
1 2 2 3 2 2 2 2 2 2 2 2 2 2 2 2 2 2 2 
</DataArray>
<DataArray type="Float32" Name="creationTime" NumberOfComponents="1" format="ascii" >
0 2.69344 3.12625 9.84904 3.54494 3.91288 4.34026 4.85813 5.34451 5.77479 6.21886 6.71167 7.12609 7.59618 8.0722 8.58251 9.08305 9.46924 9.94874 
</DataArray>

</CellData>
<Points>
<DataArray type="Float32" Name="Coordinates" NumberOfComponents="3" format="ascii" >
0 0 -3 -0.000656198 0.00156591 -3.08398 0.0813919 -0.0101194 -3.88973 0.142003 -0.0563773 -4.66235 0.311529 -0.101419 -5.31565 0.484196 -0.180074 -6.07113 0.641871 -0.335482 -6.97872 0.768919 -0.460004 -7.82817 0.712022 -0.613268 -8.57052 0.700752 -0.650534 -9.34661 0.704671 -0.656059 -10.2002 0.602175 -0.745 -10.8979 0.465189 -0.805898 -11.6822 0.299964 -0.887502 -12.4611 0.405406 -1.05996 -13.2854 0.46116 -1.19921 -14.0951 0.586789 -1.29392 -14.7044 0.560524 -1.4011 -15.4704 0.509848 -1.41454 -16.2005 0.44939 -1.49512 -16.8619 0.427921 -1.60398 -17.6218 0.285729 -1.55615 -18.3843 0.168994 -1.51964 -19.0035 0.111383 -1.3938 -19.6038 0.106035 -1.27637 -20.2925 0.0848205 -1.23812 -20.6119 -0.000656198 0.00156591 -3.08398 -0.0393872 0.0377232 -3.09692 -0.647515 0.567712 -3.25384 -1.23168 1.06986 -3.39056 -1.80708 1.59581 -3.5344 -2.42189 2.21114 -3.3846 -3.00757 2.80098 -3.2383 -3.53167 3.32603 -2.91753 -4.04925 3.84567 -2.65717 -4.56486 4.4059 -2.28583 -4.65714 4.50621 -2.21937 0.0813919 -0.0101194 -3.88973 0.12683 -0.00566707 -3.87819 0.956643 0.0785611 -3.71482 1.87303 0.201692 -3.56434 2.58023 0.313648 -3.38422 3.30465 0.361245 -3.26012 4.07923 0.397229 -3.06813 4.92361 0.28328 -2.91202 5.52844 0.210162 -2.78903 6.23455 0.0205167 -2.74408 6.36435 -0.021391 -2.73463 0.12683 -0.00566707 -3.87819 0.160903 -0.05348 -3.8543 0.142003 -0.0563773 -4.66235 0.0943047 -0.0687316 -4.64266 -0.409187 -0.431043 -4.47267 -0.979419 -1.02898 -4.14859 -1.60863 -1.42701 -3.86169 -2.23117 -1.78666 -3.54391 -2.79341 -2.08288 -3.26398 -3.34059 -2.43859 -2.86269 -3.92824 -2.60028 -2.42554 0.311529 -0.101419 -5.31565 0.340378 -0.142352 -5.30252 0.659223 -0.772504 -5.02431 1.06129 -1.40505 -4.75658 1.37512 -2.07439 -4.64476 1.51455 -2.77549 -4.57413 1.66541 -3.52403 -4.49971 1.80606 -4.36462 -4.61051 1.8162 -4.42059 -4.61617 0.484196 -0.180074 -6.07113 0.505722 -0.136315 -6.05408 0.852469 0.431555 -5.67046 1.16749 0.950766 -5.22667 1.59192 1.35892 -4.74472 2.15778 1.82312 -4.07202 2.60129 2.17601 -3.5767 2.99301 2.54437 -3.15493 3.2884 3.13062 -2.6036 0.641871 -0.335482 -6.97872 0.685114 -0.335329 -6.98139 1.44325 -0.330332 -7.08255 2.16117 -0.349418 -7.20919 2.96551 -0.359395 -7.17599 3.75373 -0.422584 -7.04753 4.50254 -0.481733 -7.14429 5.04985 -0.528166 -7.20037 0.768919 -0.460004 -7.82817 0.73564 -0.489704 -7.82161 0.228677 -0.931411 -7.66708 -0.338361 -1.37341 -7.50749 -0.941968 -1.892 -7.5107 -1.54178 -2.36409 -7.4249 -2.12148 -2.74066 -7.3474 -2.78904 -3.18233 -7.2575 -2.82549 -3.20704 -7.25222 0.712022 -0.613268 -8.57052 0.755336 -0.597063 -8.57334 1.60381 -0.420273 -8.70328 2.4902 -0.380598 -8.76997 3.31267 -0.345686 -8.82935 4.04986 -0.309845 -8.89002 4.64517 -0.259169 -8.90222 0.700752 -0.650534 -9.34661 0.718901 -0.612154 -9.33419 1.05576 0.0993876 -9.10337 1.41019 0.764171 -8.91397 1.78978 1.43319 -8.78277 2.15935 2.12807 -8.69043 2.53014 2.96004 -8.48678 2.59602 3.12013 -8.4401 0.704671 -0.656059 -10.2002 0.755025 -0.677264 -10.2074 1.37198 -1.06999 -10.318 1.89648 -1.36731 -10.4814 2.53686 -1.68319 -10.6865 3.13748 -1.92488 -10.9317 3.40511 -2.03144 -11.0399 0.602175 -0.745 -10.8979 0.594263 -0.692915 -10.8964 0.60746 0.0410581 -10.6675 0.733984 0.848706 -10.607 0.691814 1.6097 -10.5068 0.465189 -0.805898 -11.6822 0.456153 -0.847447 -11.6646 0.30119 -1.5658 -11.3738 0.325705 -2.21141 -11.018 0.380563 -2.80932 -10.6338 0.299964 -0.887502 -12.4611 0.258303 -0.855918 -12.4484 -0.347684 -0.363037 -12.2278 -0.884593 0.129877 -11.9928 -1.49583 0.620664 -11.8341 -1.512 0.633605 -11.8298 0.405406 -1.05996 -13.2854 0.452182 -1.04467 -13.2832 1.08921 -0.730032 -13.3464 1.69197 -0.431244 -13.3536 1.74229 -0.406178 -13.3556 0.46116 -1.19921 -14.0951 0.428699 -1.23861 -14.1075 -0.0399189 -1.83156 -14.2765 0.586789 -1.29392 -14.7044 0.578742 -1.23859 -14.7082 0.512602 -0.78352 -14.7403 0.560524 -1.4011 -15.4704 0.511383 -1.39958 -15.479 
</DataArray>
</Points>
<Lines>
<DataArray type="Int32" Name="connectivity" NumberOfComponents="1" format="ascii" >
0 1 2 3 4 5 6 7 8 9 10 11 12 13 14 15 16 17 18 19 20 21 22 23 24 25 26 27 28 29 30 31 32 33 34 35 36 37 38 39 40 41 42 43 44 45 46 47 48 49 50 51 52 53 54 55 56 57 58 59 60 61 62 63 64 65 66 67 68 69 70 71 72 73 74 75 76 77 78 79 80 81 82 83 84 85 86 87 88 89 90 91 92 93 94 95 96 97 98 99 100 101 102 103 104 105 106 107 108 109 110 111 112 113 114 115 116 117 118 119 120 121 122 123 124 125 126 127 128 129 130 131 132 133 134 135 136 137 138 139 140 141 142 143 144 
</DataArray>
<DataArray type="Int32" Name="offsets" NumberOfComponents="1" format="ascii" >
26 37 48 50 59 68 77 85 94 101 109 116 121 126 132 137 140 143 145 
</DataArray>

</Lines>
</Piece>
</PolyData>
</VTKFile>
