<?xml version="1.0"?><VTKFile type="PolyData" version="0.1" byte_order="LittleEndian">
<PolyData>
<Piece NumberOfLines="273" NumberOfPoints="1032">
<PointData Scalars=" PointData">
<DataArray type="Float32" Name="time" NumberOfComponents="1" format="ascii" >
0 0.1003 0.196063 0.273575 0.372654 0.401479 0.505263 0.542925 0.686923 0.738379 0.796418 0.843214 1.0084 1.12318 1.20938 1.3531 1.38837 1.45644 1.56589 1.58346 1.64464 1.76899 1.91465 2.03327 2.13326 2.13818 2.19669 2.37525 2.50881 2.54312 2.54312 2.66778 2.8024 2.86146 2.94764 3.07515 3.25655 3.30128 3.47426 3.67067 3.67068 3.8588 4.10312 4.28946 4.30317 4.42475 4.68352 4.7749 4.93901 4.96734 4.99644 5.06397 5.4416 5.53178 5.80695 5.93203 6.06648 6.06648 6.22339 6.46898 6.77936 7.16437 7.49976 8.00723 8.33408 8.78481 9.1072 9.44176 9.45045 9.87225 10.072 10.4581 10.6097 11.3825 11.3936 12.2497 12.4417 13.1408 15 0.832154 1.3888 2.58554 2.9667 4.26334 5.6485 5.72071 7.10878 7.10879 8.54447 8.77096 10.4506 12.3532 12.526 14.6445 15 9.66436 14.5872 15 14.5872 15 12.0855 15 0.940209 9.3004 12.2218 15 1.02783 8.22325 10 15 14.6706 15 1.14004 1.14012 3 13.389 15 9.50685 9.50693 10 15 9.50685 15 9.50693 10.6858 10.6859 15 12.2124 15 12.2125 15 10 12.4037 15 12.4037 14.1112 14.6607 15 9.50696 9.98351 9.9836 10 11.8799 15 10.2822 12.9771 15 10.2823 15 10.2996 15 12.3326 15 1.17274 6.571 15 1.29062 6.16343 15 11.2045 15 1.33346 3.76775 3.76784 6 6.58029 15 1.49761 2.68844 2.93205 4.2102 5.56359 5.63116 6.04902 7.51873 7.77997 9.36861 9.57455 11.2971 13.1591 14.8349 15 2.68844 10.7486 15 2.93205 3.34639 6 15 2.93205 9.54489 10 15 8.22713 15 3.34639 8.84039 15 8.84039 14.8676 15 6 8.95358 10 15 6 11.5226 15 11.5226 11.6443 11.6444 15 13.0512 15 13.2183 15 13.2185 15 8.95358 11.1098 15 10 12.1023 15 5.63116 5.86656 15 11.1157 15 11.1157 15 6.04902 7.07189 10 15 6.04902 9.96002 15 9.96002 14.3628 15 14.3628 15 7.07189 11.9941 15 11.9941 12.6483 15 10 13.7994 15 7.77997 15 9.57455 11.7565 15 11.7565 13.3771 13.3772 15 14.8349 15 1.55641 12.2049 15 13.1685 15 1.6228 7.96164 15 7.96164 9.9245 9.92459 10 15 9.9245 15 9.92459 15 10.6327 15 14.7453 15 10 15 1.6764 2.93728 4.26471 4.70554 4.70556 6.13246 7.5295 8.56294 9.18131 10.8958 11.6703 13.57 15 6.05243 8.70315 15 10.1013 15 10.1013 13.4263 15 12.2433 14.3379 14.338 15 6.05245 13.4702 15 9.04133 9.04142 10 15 11.549 12.8485 15 12.8485 13.6319 15 11.5491 15 12.7737 15 10.1402 12.2825 15 10.1402 10.3941 15 10.3941 15 10.3941 15 12.2825 15 10.7991 15 13.4625 15 13.4625 15 1.8661 6.1868 6.18693 7.0255 15 1.99836 7.43067 10.3666 15 7.43067 13.0928 13.0929 15 14.833 15 14.833 15 10.3666 12.1287 15 12.2809 15 2.09794 14.073 15 2.09794 10.8745 15 10.8745 15 10.8745 15 2.26446 4.84285 4.84294 6 8.96873 15 2.30543 9.94136 15 2.38459 14.1384 15 2.38459 6.62651 11.6832 15 2.51217 7.81648 15 2.5327 13.8691 14.178 14.1781 15 10.3081 15 2.60422 10.0582 15 10.0582 15 10.0582 12.4419 13.3773 15 2.74996 4.06142 5.41563 6.81548 8.26415 9.76517 10.3101 11.3871 13.0076 14.2614 15 2.92134 4.78148 15 8.65485 14.6791 15 3.06145 11.202 15 11.202 15 3.17994 3.18002 6 15 3.17994 10.1866 15 13.302 15 3.18002 7.79558 15 9.81287 9.81296 10 15 9.81287 13.4229 15 9.81296 10.892 15 9.81296 13.1054 15 13.1054 15 10.892 12.0126 12.0127 15 12.0126 12.6741 15 12.0127 13.0395 15 13.0395 13.1651 14.1937 15 13.3763 15 14.4304 15 10 11.6262 15 14.738 15 6 13.4272 15 3.18578 4.35576 5.58963 6.89479 8.27996 8.322 9.80049 10.6002 11.3318 13.029 14.733 15 3.25529 4.43812 5.68402 6.3072 7.65992 9.09579 9.92942 11.5168 11.5819 13.29 13.9763 15 8.58398 14.3831 15 14.6732 14.6732 15 12.6107 15 14.4723 15 3.46822 6.57853 15 6.57853 15 6.57853 6.80465 11.791 11.7911 15 3.62828 4.82677 4.82692 6 7.81305 10 4.82677 15 4.82692 11.7735 15 4.82692 14.784 15 11.7735 15 6 12.8244 15 10.4731 12.2288 12.3822 15 12.2288 15 12.3822 15 14.3658 15 3.66951 5.8305 11.1022 15 9.19064 15 3.66951 3.66959 6 9.36751 15 5.92161 15 5.92161 6.17668 15 5.92171 7.76762 7.76772 10 11.545 15 13.4908 14.3223 14.3224 15 13.491 15 8.99493 12.8943 15 3.81971 7.38605 15 3.98263 6.83913 7.43436 7.43453 15 6.83913 15 7.43436 15 7.43436 10.9243 10.9244 14.4773 15 7.43453 15 4.05435 5.18814 6.37031 7.65389 8.28441 8.8039 9.30002 9.30004 10.8029 11.8303 11.8303 13.554 14.0411 15 10.9326 15 10.9326 13.7198 13.7199 13.72 15 13.3923 15 14.0724 15 14.7272 15 14.7273 15 4.15926 8.42208 15 8.42208 10.9245 15 4.3151 5.38359 6.55521 6.72685 7.58779 7.5878 8.80674 9.96257 10.0665 10.8405 10.8405 12.7304 13.7701 15 6.72685 11.3081 15 11.3081 12.3427 14.0795 14.0796 15 7.58779 13.7199 15 7.5878 9.48523 9.48531 10 15 14.7463 14.9764 15 14.7465 15 8.80674 14.8538 14.8539 15 9.96257 15 9.96257 15 10.0665 14.4485 15 10.8405 15 10.8405 15 13.7701 15 4.53806 12.6039 15 12.6039 12.604 12.6041 15 12.6039 13.4653 15 13.8671 15 12.604 13.5501 15 12.6041 15 4.59326 6.76444 15 6.76444 7.42688 9.55853 10 15 7.42688 7.46145 15 7.46145 12.838 15 12.838 15 9.55853 15 10 15 4.8077 9.18023 15 11.4432 14.3113 15 11.4432 13.8563 15 13.8563 15 14.3113 14.7969 15 5.05297 5.35779 5.35781 6.73272 6.80761 6.80762 7.16138 7.86509 9.71655 9.7355 11.6524 12.2286 13.4863 13.4864 14.6718 15 6.23041 13.1967 15 10.439 15 12.2748 15 6.23042 15 7.83774 8.35697 15 11.8029 13.2603 15 7.83776 11.1227 15 11.1227 13.6608 15 13.9387 15 8.23433 13.9956 15 9.02893 14.6661 15 11.1833 15 13.4706 15 14.1776 15 5.05298 11.3385 15 12.3266 15 5.28979 15 5.60023 5.65077 6.71459 7.73255 7.89786 7.89788 8.57417 9.2671 9.35774 10.444 11.9426 12.0544 12.9741 14.2488 14.8377 15 14.9823 15 5.83931 6.94685 8.10155 9.30762 9.74183 9.74184 11.0249 11.0701 12.4192 13.839 14.6087 15 5.85699 9.69524 15 12.5511 15 6.01422 10.8715 15 6.01422 8.39319 11.5628 15 10.4367 15 13.8347 15 10.8715 10.8716 15 6.35203 6.35212 10 15 6.35203 10.4795 15 10.9847 13.0228 13.0228 15 6.35212 8.83861 15 10 10.0001 15 12.115 15 12.115 15 12.1151 13.5196 15 6.47238 7.58004 8.77115 10.0593 10.9604 12.1576 12.1576 12.3601 13.672 15 6.68997 7.47925 7.47933 10 15 13.6315 15 13.6317 15 6.72774 7.8476 9.03969 10.314 11.6826 13.1608 14.1737 14.1737 15 14.1737 15 14.1737 15 6.76658 8.08644 9.47149 10.9285 12.4653 14.0913 14.5411 15 6.85697 8.05834 8.31123 8.78086 10.1348 11.6082 12.878 12.878 12.878 12.878 14.535 14.535 14.815 14.815 15 7.36888 12.199 12.1991 15 7.49284 8.69104 9.9368 11.2341 12.5873 14.0014 15 7.87544 9.01333 9.24204 10.4505 11.725 12.0429 13.4102 14.8628 15 8.05164 14.5605 15 8.24271 8.51618 15 14.3405 15 8.24272 8.81134 10.1475 11.3614 11.3614 12.9385 13.1382 13.2993 13.2993 15 12.3719 13.7084 15 14.6034 15 13.1107 15 8.468 10.805 14.5607 15 13.6591 15 8.82583 10.1553 11.6156 13.2354 15 9.2879 15 9.87802 11.1756 15 12.3618 15 10.4092 13.723 15 13.723 15 11.2482 11.6798 12.6317 13.8933 14.8098 15 11.8145 13.1142 14.4609 15 12.6352 14.3067 15 13.2553 15 13.9334 14.9805 15 13.9516 14.3879 15 13.9516 15 14.3879 14.388 14.388 15 14.8683 15 
</DataArray>

</PointData>
<CellData Scalars=" CellData">
<DataArray type="Float32" Name="radius" NumberOfComponents="1" format="ascii" >
0.0794409 0.0773934 0.0536847 0.0854882 0.0718188 0.0657903 0.0846409 0.0724191 0.089709 0.062097 0.0752525 0.0713869 0.0645551 0.0782865 0.0707818 0.0616154 0.0712374 0.0739613 0.0571407 0.0642399 0.0538889 0.0541721 0.069698 0.0549375 0.0559872 0.06222 0.0467458 0.0748723 0.0865398 0.068507 0.0672283 0.0584679 0.0540246 0.0650481 0.0807218 0.0696605 0.0620758 0.0669303 0.0694496 0.0520489 0.057855 0.0717945 0.0572788 0.0963734 0.0742691 0.0669981 0.0825478 0.0699761 0.0825692 0.0732108 0.0742858 0.0840028 0.0676297 0.0759396 0.0633671 0.0529789 0.0534514 0.0669134 0.0669297 0.0656557 0.0715727 0.0726241 0.0586826 0.0755459 0.0772027 0.0615605 0.0815953 0.0774864 0.0524614 0.0839885 0.0572258 0.0750481 0.0494555 0.0719486 0.073628 0.0489983 0.0704591 0.0804332 0.0714717 0.0773717 0.0821997 0.063554 0.0570087 0.0740016 0.0931026 0.0549895 0.0775066 0.0838002 0.0900839 0.0708838 0.0571266 0.0804002 0.0601896 0.0730971 0.046053 0.0855501 0.0704394 0.0629245 0.069285 0.0697004 0.0584678 0.0712046 0.0608761 0.0817395 0.071446 0.0685999 0.0771353 0.0866625 0.0790794 0.083394 0.0662624 0.0574451 0.0647406 0.0447062 0.063046 0.065756 0.0599893 0.0744275 0.0747271 0.068493 0.0709513 0.073222 0.0686622 0.0586877 0.0674236 0.0612185 0.0729215 0.0663814 0.0944312 0.0726607 0.0785328 0.0651799 0.0726035 0.0667624 0.085646 0.0660986 0.0996445 0.0880648 0.068621 0.066865 0.0596587 0.0615238 0.0576437 0.0555161 0.0676734 0.0692535 0.0744078 0.0714025 0.0696804 0.0810803 0.0815369 0.0656312 0.0715026 0.0947366 0.0579923 0.0580068 0.0738 0.0618046 0.0686095 0.0791163 0.0726824 0.073644 0.066031 0.0609308 0.067582 0.0649426 0.0646747 0.0747245 0.0856389 0.0684944 0.0638069 0.0748686 0.0674329 0.0747438 0.0825929 0.0735193 0.0753189 0.0678431 0.0773431 0.0608103 0.0788633 0.0754722 0.07072 0.071496 0.0663352 0.0595463 0.0834807 0.0925372 0.0764864 0.0810368 0.075431 0.0693975 0.0543535 0.04963 0.0673654 0.0832762 0.0579648 0.0766451 0.0848416 0.0773499 0.0671628 0.0726599 0.0766642 0.0587227 0.0770999 0.0701259 0.0612009 0.0645203 0.0613893 0.0738598 0.0686195 0.0592032 0.0609317 0.0635765 0.0750081 0.0495446 0.054023 0.080328 0.0633042 0.0626334 0.0547056 0.0748227 0.0707546 0.0657338 0.0608447 0.0612352 0.0708425 0.0786623 0.0617026 0.0757736 0.0856729 0.0526335 0.0796536 0.0786839 0.0632755 0.0587676 0.0776723 0.0716208 0.0701162 0.0592827 0.0795664 0.0696846 0.0621474 0.0741015 0.0698214 0.0690284 0.0787399 0.070572 0.0818049 0.0709924 0.0698915 0.0634713 0.0604525 0.0817303 0.0575741 0.063892 0.0624884 0.0814901 0.0617649 0.063705 0.0837997 0.0786332 0.0602326 0.0632225 0.0781957 0.0901097 0.0707139 0.0610241 0.0682749 0.0802059 0.0713596 0.0824459 0.0577501 
</DataArray>
<DataArray type="Float32" Name="subType" NumberOfComponents="1" format="ascii" >
1 2 3 3 3 3 3 3 3 3 3 3 3 3 3 3 3 3 3 3 3 3 3 3 3 2 3 3 3 3 3 3 3 3 3 3 3 3 3 3 3 3 3 3 3 3 3 3 3 3 3 3 3 3 3 3 3 3 3 3 3 3 3 2 3 3 3 3 3 3 3 3 3 3 3 3 3 3 3 3 3 3 3 3 3 3 3 3 3 3 3 3 3 3 3 3 3 3 3 3 3 3 3 2 3 3 3 3 3 3 3 3 3 3 3 3 3 3 3 3 3 3 3 3 3 3 2 2 3 3 3 3 3 3 3 3 3 3 3 3 3 3 3 3 3 3 3 3 3 3 3 3 3 3 3 3 3 3 3 3 2 3 3 3 3 3 3 3 3 2 3 3 3 3 3 3 3 3 3 3 3 3 3 3 3 3 3 3 3 3 3 3 3 3 3 3 3 3 3 3 3 2 3 3 3 3 3 3 3 3 3 3 3 3 3 2 3 3 3 2 3 2 3 3 3 3 3 3 3 3 3 3 3 3 3 3 3 2 3 3 3 2 3 3 2 2 3 2 2 3 3 3 2 3 3 3 3 3 2 3 3 3 3 3 2 2 3 3 2 3 3 3 2 
</DataArray>
<DataArray type="Float32" Name="creationTime" NumberOfComponents="1" format="ascii" >
0 0.832154 9.66436 14.5872 12.0855 0.940209 1.02783 14.6706 1.14004 9.50685 9.50685 9.50693 12.2124 12.2125 10 12.4037 9.50696 10.2822 10.2823 10.2996 12.3326 1.17274 1.29062 11.2045 1.33346 1.49761 2.68844 2.93205 2.93205 8.22713 3.34639 8.84039 6 6 11.5226 13.0512 13.2183 13.2185 8.95358 10 5.63116 11.1157 11.1157 6.04902 6.04902 9.96002 14.3628 7.07189 11.9941 10 7.77997 9.57455 11.7565 14.8349 1.55641 13.1685 1.6228 7.96164 9.9245 9.92459 10.6327 14.7453 10 1.6764 6.05243 10.1013 10.1013 12.2433 6.05245 9.04133 11.549 12.8485 11.5491 12.7737 10.1402 10.1402 10.3941 10.3941 12.2825 10.7991 13.4625 13.4625 1.8661 1.99836 7.43067 14.833 14.833 10.3666 12.2809 2.09794 2.09794 10.8745 10.8745 2.26446 2.30543 2.38459 2.38459 2.51217 2.5327 10.3081 2.60422 10.0582 10.0582 2.74996 2.92134 8.65485 3.06145 11.202 3.17994 3.17994 13.302 3.18002 9.81287 9.81287 9.81296 9.81296 13.1054 10.892 12.0126 12.0127 13.0395 13.3763 14.4304 10 14.738 6 3.18578 3.25529 8.58398 14.6732 12.6107 14.4723 3.46822 6.57853 6.57853 3.62828 4.82677 4.82692 4.82692 11.7735 6 10.4731 12.2288 12.3822 14.3658 3.66951 9.19064 3.66951 5.92161 5.92161 5.92171 13.4908 13.491 8.99493 3.81971 3.98263 6.83913 7.43436 7.43436 7.43453 4.05435 10.9326 10.9326 13.3923 14.0724 14.7272 14.7273 4.15926 8.42208 4.3151 6.72685 11.3081 7.58779 7.5878 14.7463 14.7465 8.80674 9.96257 9.96257 10.0665 10.8405 10.8405 13.7701 4.53806 12.6039 12.6039 13.8671 12.604 12.6041 4.59326 6.76444 7.42688 7.46145 12.838 9.55853 10 4.8077 11.4432 11.4432 13.8563 14.3113 5.05297 6.23041 10.439 12.2748 6.23042 7.83774 11.8029 7.83776 11.1227 13.9387 8.23433 9.02893 11.1833 13.4706 14.1776 5.05298 12.3266 5.28979 5.60023 14.9823 5.83931 5.85699 12.5511 6.01422 6.01422 10.4367 13.8347 10.8715 6.35203 6.35203 10.9847 6.35212 10 12.115 12.115 12.1151 6.47238 6.68997 13.6315 13.6317 6.72774 14.1737 14.1737 6.76658 6.85697 7.36888 7.49284 7.87544 8.05164 8.24271 14.3405 8.24272 12.3719 14.6034 13.1107 8.468 13.6591 8.82583 9.2879 9.87802 12.3618 10.4092 13.723 11.2482 11.8145 12.6352 13.2553 13.9334 13.9516 13.9516 14.3879 14.8683 
</DataArray>

</CellData>
<Points>
<DataArray type="Float32" Name="Coordinates" NumberOfComponents="3" format="ascii" >
0 0 -3 -0.0648898 -0.00299223 -3.49096 -0.0961204 0.0173601 -3.95478 -0.209986 0.0961907 -4.29931 -0.225995 0.176694 -4.75989 -0.244008 0.213974 -4.88806 -0.374019 0.407021 -5.30753 -0.383787 0.44059 -5.47603 -0.443838 0.513913 -6.1173 -0.447329 0.52689 -6.34487 -0.467726 0.524536 -6.59887 -0.472491 0.487979 -6.79923 -0.424551 0.323489 -7.48489 -0.421569 0.175553 -7.94146 -0.419208 0.0641716 -8.27807 -0.392221 -0.121454 -8.82709 -0.386731 -0.171008 -8.95825 -0.372877 -0.246726 -9.21547 -0.32365 -0.355569 -9.62384 -0.316341 -0.37302 -9.68876 -0.310549 -0.41181 -9.91932 -0.454617 -0.401076 -10.3646 -0.532799 -0.476967 -10.8899 -0.505566 -0.588623 -11.3017 -0.50979 -0.642066 -11.6516 -0.510026 -0.644307 -11.6687 -0.542007 -0.662249 -11.8697 -0.638664 -0.722523 -12.4705 -0.658546 -0.701031 -12.9155 -0.661398 -0.690896 -13.0279 -0.661398 -0.690895 -13.0279 -0.668338 -0.705617 -13.4328 -0.74656 -0.721218 -13.8537 -0.778626 -0.736007 -14.0352 -0.827407 -0.768057 -14.2955 -0.862009 -0.779124 -14.6816 -0.841824 -0.878717 -15.2099 -0.828449 -0.888947 -15.339 -0.819266 -0.879713 -15.8335 -0.778844 -0.878785 -16.377 -0.778843 -0.878785 -16.377 -0.741581 -0.883983 -16.8814 -0.732259 -0.92329 -17.5142 -0.757669 -0.929166 -17.9803 -0.758291 -0.929967 -18.0141 -0.785979 -0.954104 -18.3082 -0.88017 -1.01234 -18.9095 -0.862365 -1.07515 -19.1089 -0.828219 -1.20086 -19.4542 -0.823532 -1.22301 -19.5127 -0.818906 -1.24544 -19.5726 -0.830713 -1.28053 -19.7154 -0.727707 -1.39375 -20.4966 -0.701853 -1.45185 -20.6681 -0.58344 -1.65915 -21.1544 -0.522572 -1.71889 -21.377 -0.470499 -1.74773 -21.6206 -0.470497 -1.74773 -21.6206 -0.414538 -1.74974 -21.9008 -0.352858 -1.7272 -22.3286 -0.122172 -1.70282 -22.797 0.0166783 -1.65962 -23.3921 0.164093 -1.559 -23.8624 0.222126 -1.34619 -24.5379 0.176627 -1.29457 -24.9597 0.008667 -1.21874 -25.4812 -0.13088 -1.20621 -25.8251 -0.212635 -1.14959 -26.1765 -0.214706 -1.14816 -26.1853 -0.281616 -1.09228 -26.6086 -0.336041 -1.10675 -26.7948 -0.438184 -1.12828 -27.1376 -0.477983 -1.12603 -27.2663 -0.662423 -1.11941 -27.8757 -0.664639 -1.11926 -27.884 -0.703019 -1.01264 -28.4898 -0.716527 -0.98812 -28.6135 -0.737026 -0.978584 -29.0422 -0.648477 -1.07885 -29.9618 -0.0648898 -0.00299223 -3.49096 -0.208125 -0.419789 -3.69488 -0.591672 -1.23046 -4.13725 -0.711032 -1.47822 -4.27217 -1.07147 -2.22897 -4.82575 -1.44756 -3.03186 -5.28828 -1.46308 -3.07356 -5.3117 -1.72978 -3.8914 -5.67192 -1.72978 -3.89141 -5.67193 -1.97279 -4.70277 -5.97567 -2.00558 -4.82605 -6.02346 -2.19552 -5.70273 -6.37701 -2.26471 -6.55554 -6.89464 -2.27378 -6.6315 -6.9345 -2.58604 -7.48138 -7.359 -2.61475 -7.62488 -7.41806 -0.208125 -0.419789 -3.69488 -0.428998 -0.879613 -3.89928 -0.443812 -0.913885 -3.91503 -0.428998 -0.879613 -3.89928 -0.465058 -0.911654 -3.88423 -0.711032 -1.47822 -4.27217 -0.824716 -1.5256 -4.57587 -0.0961204 0.0173601 -3.95478 -0.377613 -0.278726 -4.86752 -0.533601 -0.285651 -5.12413 -0.627069 -0.451492 -5.3083 -0.209986 0.0961907 -4.29931 -0.251139 0.409873 -5.01219 -0.301285 0.488285 -5.15066 -0.591308 0.468904 -5.45704 -0.209986 0.0961907 -4.29931 -0.198776 0.128896 -4.28288 -0.225995 0.176694 -4.75989 -0.226002 0.176696 -4.7599 -0.296701 0.195046 -4.98523 0.461502 0.0106492 -5.61063 0.544342 0.00972344 -5.69126 -0.225995 0.176694 -4.75989 -0.226 0.176703 -4.75989 -0.255354 0.224848 -4.73754 -0.446669 0.665 -4.50115 -0.225995 0.176694 -4.75989 -0.611416 0.0860953 -5.20852 -0.226 0.176703 -4.75989 -0.135122 0.0773236 -4.7619 -0.135115 0.0773162 -4.7619 0.0232994 -0.269725 -4.87574 -0.135122 0.0773236 -4.7619 -0.0976698 -0.211169 -4.54084 -0.135115 0.0773162 -4.7619 -0.323333 0.313191 -4.67394 -0.255354 0.224848 -4.73754 -0.153145 0.159369 -4.97091 -0.0197362 0.066309 -5.18369 -0.153145 0.159369 -4.97091 -0.222278 0.0882209 -5.14134 -0.242608 0.0699597 -5.19263 -0.25574 0.06215 -5.22376 -0.226002 0.176696 -4.7599 -0.239637 0.123832 -4.76257 -0.23964 0.123822 -4.76257 -0.240064 0.122079 -4.76267 -0.26476 -0.0465385 -4.79757 -0.311123 -0.221436 -4.76409 -0.239637 0.123832 -4.76257 -0.131349 0.315049 -5.02339 -0.0734381 0.470906 -5.18205 -0.23964 0.123822 -4.76257 0.199763 0.198269 -4.72571 -0.240064 0.122079 -4.76267 -0.390974 0.263402 -5.13157 -0.296701 0.195046 -4.98523 -0.119279 -0.053106 -5.09776 -0.244008 0.213974 -4.88806 -0.279783 -0.379374 -5.07874 -0.0415274 -1.07018 -5.44454 -0.374019 0.407021 -5.30753 -0.637638 0.682838 -5.80839 -0.952225 0.155204 -6.49777 -0.637638 0.682838 -5.80839 -1.05113 0.685534 -6.06188 -0.383787 0.44059 -5.47603 -0.618162 0.400208 -5.65595 -0.61817 0.400206 -5.65596 -0.791515 0.393901 -5.81018 -0.830493 0.399728 -5.84799 -1.08281 0.205737 -6.34032 -0.443838 0.513913 -6.1173 -0.955773 1.3652 -6.1343 -1.0616 1.53056 -6.1503 -1.59692 2.35341 -6.34098 -2.20334 3.14515 -6.41455 -2.22844 3.18636 -6.4108 -2.37608 3.44142 -6.38135 -2.94001 4.26702 -6.36201 -3.03229 4.41091 -6.37071 -3.57549 5.24623 -6.45539 -3.64031 5.35265 -6.45218 -4.14804 6.20444 -6.32307 -4.59189 7.09051 -6.18941 -4.96005 7.82987 -6.07896 -5.00732 7.89259 -6.07156 -0.955773 1.3652 -6.1343 -0.516603 0.727462 -5.81335 -0.35974 0.425989 -5.69211 -1.0616 1.53056 -6.1503 -1.0691 1.55261 -6.10821 -1.09917 1.70118 -5.89179 -1.04223 1.53112 -5.41378 -1.0616 1.53056 -6.1503 -0.587776 1.45695 -5.56476 -0.558861 1.45186 -5.53149 -0.364241 1.49906 -5.14783 -1.0616 1.53056 -6.1503 -1.29611 0.941189 -6.16224 -1.0691 1.55261 -6.10821 -1.59948 1.54803 -6.32323 -2.04764 1.55125 -6.39581 -1.59948 1.54803 -6.32323 -1.63017 1.87036 -6.77412 -1.63053 1.87622 -6.78247 -1.09917 1.70118 -5.89179 -1.22167 1.80478 -5.61392 -1.26135 1.83379 -5.53291 -1.44338 1.88072 -5.24013 -1.09917 1.70118 -5.89179 -0.837347 2.16454 -5.76836 -0.770606 2.42794 -5.85832 -0.837347 2.16454 -5.76836 -0.848197 2.17001 -5.77439 -0.848205 2.17002 -5.77439 -0.900888 2.33317 -5.97945 -0.837347 2.16454 -5.76836 -0.885944 1.97263 -5.78118 -0.848197 2.17001 -5.77439 -0.869407 2.2875 -5.97148 -0.848205 2.17002 -5.77439 -0.916907 2.00043 -5.78518 -1.22167 1.80478 -5.61392 -1.07411 1.97046 -5.55177 -0.821502 2.24778 -5.45129 -1.26135 1.83379 -5.53291 -1.32222 1.9512 -5.30621 -1.36053 2.10189 -5.04923 -2.22844 3.18636 -6.4108 -2.22758 3.19252 -6.38391 -2.4018 3.1746 -5.49253 -2.22758 3.19252 -6.38391 -1.99313 3.51243 -6.19337 -2.22758 3.19252 -6.38391 -2.42883 2.82438 -6.48996 -2.37608 3.44142 -6.38135 -2.46256 3.38359 -6.32262 -2.61946 3.23079 -6.10295 -2.84644 3.01881 -5.7975 -2.37608 3.44142 -6.38135 -2.27136 3.74397 -6.73252 -2.16904 4.06094 -7.09125 -2.27136 3.74397 -6.73252 -2.62111 4.05263 -6.78465 -2.66748 4.09083 -6.79321 -2.62111 4.05263 -6.78465 -2.66083 3.99867 -6.73444 -2.46256 3.38359 -6.32262 -2.36437 3.83775 -6.1173 -2.32261 4.05704 -6.02678 -2.36437 3.83775 -6.1173 -2.34211 3.90484 -6.07969 -2.24426 4.09351 -5.90275 -2.61946 3.23079 -6.10295 -2.76971 3.56958 -5.88613 -2.83024 3.66877 -5.85408 -3.03229 4.41091 -6.37071 -3.63026 4.76124 -6.36333 -3.64031 5.35265 -6.45218 -3.41061 5.25081 -6.52879 -3.15951 5.20288 -6.7531 -3.41061 5.25081 -6.52879 -3.24427 5.21928 -6.57719 -3.24426 5.21928 -6.5772 -3.0824 5.20915 -6.62114 -4.96005 7.82987 -6.07896 -4.96382 7.81012 -6.07289 -0.447329 0.52689 -6.34487 0.218091 -0.00656893 -6.85136 0.352248 -0.163717 -6.87672 -0.447329 0.52689 -6.34487 -0.340401 0.412865 -6.42315 -0.467726 0.524536 -6.59887 -0.543656 -0.0694121 -6.66879 -0.26345 -0.491516 -6.80568 -0.543656 -0.0694121 -6.66879 -0.694164 -0.0832028 -6.49867 -0.69417 -0.0832034 -6.49866 -0.699647 -0.0837157 -6.49247 -0.939247 -0.243039 -6.10651 -0.694164 -0.0832028 -6.49867 -0.545684 0.231458 -6.14667 -0.69417 -0.0832034 -6.49866 -0.712539 0.309222 -6.32695 -0.69417 -0.0832034 -6.49866 -0.422516 -0.0793167 -6.88251 -0.69417 -0.0832034 -6.49866 -0.672995 -0.0866447 -6.48186 -0.699647 -0.0837157 -6.49247 -0.36936 -0.214829 -6.12032 -0.472491 0.487979 -6.79923 -1.22467 1.1111 -7.01358 -1.75859 1.93084 -7.22081 -1.92611 2.19491 -7.2914 -1.92611 2.19492 -7.2914 -2.56362 2.96367 -7.24017 -3.17928 3.58275 -7.54752 -3.50415 4.1377 -7.65743 -3.68771 4.46145 -7.72203 -4.35844 5.20219 -7.75972 -4.66189 5.50662 -7.76505 -5.35012 6.23166 -7.79081 -5.89445 6.66728 -7.89171 -1.92611 2.19491 -7.2914 -1.91032 2.50685 -7.21655 -1.70496 3.06219 -6.92952 -1.91032 2.50685 -7.21655 -2.28525 2.2122 -6.90121 -1.91032 2.50685 -7.21655 -1.99878 2.17628 -7.24313 -2.03166 2.0547 -7.26439 -1.91032 2.50685 -7.21655 -1.71813 2.42093 -7.19276 -1.71812 2.42093 -7.19276 -1.66562 2.38886 -7.19077 -1.92611 2.19492 -7.2914 -1.11472 2.27493 -7.1895 -0.989377 2.29929 -7.17852 -3.17928 3.58275 -7.54752 -3.17928 3.58274 -7.54752 -3.23882 3.53502 -7.46819 -3.38037 3.38069 -7.08213 -3.17928 3.58275 -7.54752 -3.23473 3.72307 -7.58593 -3.34416 3.93278 -7.58494 -3.23473 3.72307 -7.58593 -3.27524 3.73973 -7.65824 -3.34357 3.76547 -7.77791 -3.17928 3.58274 -7.54752 -3.53264 3.41885 -7.37616 -3.23882 3.53502 -7.46819 -3.28664 3.65478 -7.22191 -3.50415 4.1377 -7.65743 -3.33858 3.99634 -7.66501 -3.18926 3.91041 -7.66101 -3.50415 4.1377 -7.65743 -3.50901 4.10698 -7.64454 -3.54568 3.66172 -7.61853 -3.50901 4.10698 -7.64454 -3.93441 4.20376 -7.55163 -3.50901 4.10698 -7.64454 -3.95659 3.82509 -7.72698 -3.33858 3.99634 -7.66501 -3.04353 3.86218 -7.68817 -3.68771 4.46145 -7.72203 -4.01897 4.26904 -7.41179 -4.66189 5.50662 -7.76505 -4.61048 5.32856 -7.7857 -4.66189 5.50662 -7.76505 -4.82035 5.55269 -7.76967 -0.424551 0.323489 -7.48489 -0.291187 -0.0325759 -7.39414 -0.291183 -0.032585 -7.39414 -0.278598 -0.0941073 -7.38196 -0.202942 -0.541931 -7.29709 -0.421569 0.175553 -7.94146 -0.749223 -0.251145 -7.90718 -0.820568 -0.430141 -7.92529 -0.869452 -0.579797 -8.06957 -0.749223 -0.251145 -7.90718 -0.711247 -0.257322 -7.38841 -0.711246 -0.257322 -7.3884 -0.714821 -0.269393 -7.25645 -0.749223 -0.251145 -7.90718 -0.762648 -0.239417 -7.9172 -0.749223 -0.251145 -7.90718 -0.747315 -0.237236 -7.91822 -0.820568 -0.430141 -7.92529 -0.742666 -0.247835 -7.87263 -0.622009 0.0169204 -7.7987 -0.742666 -0.247835 -7.87263 -0.645938 -0.357102 -7.67078 -0.419208 0.0641716 -8.27807 -1.13691 0.586333 -8.73878 -1.16992 0.607811 -8.7576 -0.419208 0.0641716 -8.27807 0.439192 -0.0743881 -8.04302 0.684629 -0.022808 -7.84329 0.439192 -0.0743881 -8.04302 0.200386 -0.178967 -7.68682 0.439192 -0.0743881 -8.04302 0.135742 -0.201017 -8.40418 -0.392221 -0.121454 -8.82709 -0.339365 0.14842 -8.95972 -0.339363 0.148429 -8.95972 -0.314817 0.257191 -9.01775 -0.314883 0.529498 -9.12739 -0.320947 0.980599 -9.30876 -0.386731 -0.171008 -8.95825 -0.987416 0.317919 -8.69372 -1.37008 0.558026 -8.55293 -0.372877 -0.246726 -9.21547 -1.21629 -0.323321 -9.74725 -1.25872 -0.336554 -9.78343 -0.372877 -0.246726 -9.21547 -0.733819 -0.2357 -8.85162 -1.13137 -0.224983 -8.52386 -1.37951 -0.317318 -8.40654 -0.32365 -0.355569 -9.62384 0.0362311 -0.846885 -9.81243 0.450805 -1.42476 -9.97682 -0.316341 -0.37302 -9.68876 0.638625 -0.563301 -9.46109 0.656882 -0.566867 -9.4553 0.656891 -0.566869 -9.4553 0.704856 -0.581699 -9.45754 -0.316341 -0.37302 -9.68876 -0.543632 -0.411246 -10.1312 -0.310549 -0.41181 -9.91932 -1.04509 -0.757038 -10.0136 -1.49158 -0.845311 -10.0697 -1.04509 -0.757038 -10.0136 -0.605582 -0.842874 -10.2314 -1.04509 -0.757038 -10.0136 -1.06814 -0.521129 -10.1494 -1.07679 -0.437681 -10.205 -1.08286 -0.298961 -10.2969 -0.454617 -0.401076 -10.3646 0.0326691 -0.149655 -11.2009 0.465236 0.0691651 -12.0756 1.07239 0.577376 -12.6864 1.78114 1.0288 -13.2285 2.505 1.48433 -13.7467 2.72432 1.65861 -13.9634 3.10709 1.83183 -14.5063 3.66478 2.05189 -15.3067 3.98155 2.21775 -15.963 4.20042 2.28546 -16.3266 -0.532799 -0.476967 -10.8899 -0.574283 -0.306226 -10.7855 -0.74619 -0.0272157 -9.92879 -0.574283 -0.306226 -10.7855 -1.25557 -0.359736 -10.4804 -1.28958 -0.365747 -10.4672 -0.505566 -0.588623 -11.3017 -1.18479 -0.0661041 -11.2494 -1.42842 0.104314 -11.2072 -1.18479 -0.0661041 -11.2494 -0.782607 -0.284068 -11.186 -0.50979 -0.642066 -11.6516 -0.509793 -0.642073 -11.6516 -0.625647 -0.906387 -11.7114 -0.838201 -1.44806 -11.7719 -0.50979 -0.642066 -11.6516 -0.264085 -0.603323 -12.2881 -0.118641 -0.586121 -12.6495 -0.50979 -0.642066 -11.6516 -0.43861 -0.713184 -11.4702 -0.509793 -0.642073 -11.6516 -0.909621 -0.564386 -11.298 -1.40208 -0.553574 -10.8582 -0.909621 -0.564386 -11.298 -0.909625 -0.564381 -11.298 -0.919191 -0.553822 -11.2825 -0.938982 -0.151253 -11.0128 -0.909621 -0.564386 -11.298 -1.19997 -0.911136 -11.1394 -1.29627 -1.03806 -11.0284 -0.909625 -0.564381 -11.298 -0.929566 -0.678936 -11.2748 -0.90978 -0.903888 -10.9608 -0.909625 -0.564381 -11.298 -1.02393 -0.548384 -10.97 -1.06106 -0.563296 -10.809 -1.02393 -0.548384 -10.97 -1.21381 -0.564427 -10.8333 -0.929566 -0.678936 -11.2748 -0.80982 -0.695716 -11.336 -0.809811 -0.695717 -11.336 -0.578324 -0.728976 -11.4664 -0.80982 -0.695716 -11.336 -0.817125 -0.732819 -11.4047 -0.914569 -0.78616 -11.6444 -0.809811 -0.695717 -11.336 -0.911171 -0.713652 -11.4064 -1.12486 -0.715704 -11.4716 -0.911171 -0.713652 -11.4064 -0.905357 -0.71384 -11.4226 -0.876644 -0.707342 -11.5519 -0.859052 -0.686158 -11.6417 -0.905357 -0.71384 -11.4226 -1.00123 -0.567915 -11.366 -0.876644 -0.707342 -11.5519 -0.893585 -0.760675 -11.6039 -0.919191 -0.553822 -11.2825 -1.09565 -0.65001 -11.3149 -1.28055 -0.926051 -11.2569 -1.09565 -0.65001 -11.3149 -1.1078 -0.664987 -11.3359 -0.625647 -0.906387 -11.7114 -1.07382 -0.494825 -12.1645 -1.12273 -0.42201 -12.2683 -0.510026 -0.644307 -11.6687 0.213476 -1.26948 -11.9615 0.982158 -1.87427 -12.1697 1.78291 -2.37985 -12.4909 2.55006 -2.86971 -12.9051 2.57272 -2.88388 -12.9173 3.33624 -3.36747 -13.3453 3.79158 -3.59673 -13.4129 4.1637 -3.85811 -13.4149 5.01008 -4.38754 -13.3571 5.80416 -4.80115 -13.1011 5.92426 -4.86403 -13.0675 -0.542007 -0.662249 -11.8697 -1.11462 -0.972866 -12.6284 -1.47853 -1.2005 -13.5316 -1.68478 -1.38177 -13.9259 -2.19558 -1.75879 -14.6986 -2.86028 -2.19664 -15.3039 -3.22313 -2.42953 -15.6502 -3.7559 -2.73726 -16.4385 -3.77724 -2.75325 -16.4678 -4.47813 -3.11479 -17.0826 -4.6841 -3.2892 -17.3525 -4.92459 -3.61915 -17.7193 -1.68478 -1.38177 -13.9259 -1.15997 -1.52525 -13.612 -1.11204 -1.53784 -13.5847 -1.15997 -1.52525 -13.612 -1.15998 -1.52525 -13.612 -1.18677 -1.52592 -13.5798 -3.22313 -2.42953 -15.6502 -3.1247 -2.27665 -15.5836 -3.77724 -2.75325 -16.4678 -3.79482 -2.69681 -16.4809 -0.638664 -0.722523 -12.4705 -0.811218 -0.47288 -12.3731 -1.28359 -0.113999 -12.3812 -0.811218 -0.47288 -12.3731 -0.581512 -1.02843 -12.058 -0.811218 -0.47288 -12.3731 -0.825828 -0.450347 -12.3843 -0.977779 0.0217253 -12.1935 -0.977782 0.0217341 -12.1935 -1.06522 0.244913 -12.1193 -0.658546 -0.701031 -12.9155 -0.719087 -0.65276 -12.8522 -0.719093 -0.652755 -12.8522 -0.758938 -0.614989 -12.8207 -0.794345 -0.579109 -12.794 -0.812075 -0.559744 -12.7735 -0.719087 -0.65276 -12.8522 -1.58872 -0.668311 -13.0236 -0.719093 -0.652755 -12.8522 -0.928652 -0.112816 -12.7326 -0.97974 0.0256865 -12.6865 -0.719093 -0.652755 -12.8522 -1.61605 -0.534055 -12.4263 -1.63196 -0.531907 -12.419 -0.928652 -0.112816 -12.7326 -0.654417 0.130934 -12.6535 -0.758938 -0.614989 -12.8207 -0.223295 -0.518055 -12.5058 -0.06509 -0.449954 -12.4486 -0.758938 -0.614989 -12.8207 -0.81199 -0.808766 -12.7948 -0.816251 -0.823906 -12.7917 -0.894285 -1.04805 -12.8142 -0.81199 -0.808766 -12.7948 -0.622762 -0.793622 -13.017 -0.816251 -0.823906 -12.7917 -0.952995 -0.59842 -12.9801 -0.816251 -0.823906 -12.7917 -0.767019 -0.860315 -12.835 -0.661398 -0.690896 -13.0279 -0.77244 -0.907761 -13.0753 -1.18485 -1.16312 -13.1648 -1.40288 -1.34145 -13.1632 -0.77244 -0.907761 -13.0753 -0.863377 -0.298916 -12.8612 -0.661398 -0.690895 -13.0279 -0.661391 -0.690889 -13.0279 -0.569485 -0.517275 -12.8631 -0.462245 -0.333076 -12.69 -0.328802 -0.117202 -12.5549 -0.661398 -0.690895 -13.0279 -1.113 -0.755186 -13.8851 -0.661398 -0.690895 -13.0279 -0.686792 -0.683325 -13.02 -1.2178 -1.29661 -12.6454 -0.661391 -0.690889 -13.0279 -0.548779 -0.824926 -12.9427 -0.548773 -0.824933 -12.9427 -0.464494 -0.999079 -12.9001 -0.408438 -1.09976 -12.8819 -0.310707 -1.28309 -12.8418 -0.548779 -0.824926 -12.9427 -0.554173 -0.867596 -13.0241 -0.554174 -0.867601 -13.0241 -0.551915 -0.890234 -13.0926 -0.548773 -0.824933 -12.9427 -0.494038 -0.86745 -12.7892 -0.569485 -0.517275 -12.8631 -0.94047 -0.51486 -12.6038 -1.07523 -0.567371 -12.4464 -0.668338 -0.705617 -13.4328 -0.377255 -1.01737 -13.1978 0.25322 -1.54477 -12.8157 -0.74656 -0.721218 -13.8537 -0.514536 -0.777509 -13.9092 -0.478986 -0.787323 -13.916 -0.478977 -0.787325 -13.916 -0.26147 -0.804179 -14.0418 -0.514536 -0.777509 -13.9092 -1.05465 -0.424945 -13.3385 -0.478986 -0.787323 -13.916 -1.01289 -0.695835 -13.2874 -0.478986 -0.787323 -13.916 -0.22344 -0.604575 -13.9419 -0.223432 -0.604569 -13.9419 0.0295848 -0.497293 -13.9471 0.0639508 -0.483844 -13.9486 -0.478977 -0.787325 -13.916 -0.525238 -0.273089 -14.548 -0.778626 -0.736007 -14.0352 -1.6334 -1.043 -14.4537 -2.56442 -1.0423 -14.7655 -3.40782 -1.42136 -15.1463 -3.80407 -1.60008 -15.3179 -4.12698 -1.76009 -15.4169 -4.42617 -1.90489 -15.5186 -4.42618 -1.9049 -15.5186 -5.21663 -2.46286 -15.7713 -5.7608 -2.6501 -16.0515 -5.76081 -2.65011 -16.0515 -6.60413 -2.94226 -16.5025 -6.82147 -3.06294 -16.5994 -7.2605 -3.25216 -16.7646 -2.56442 -1.0423 -14.7655 -2.13589 -1.14 -14.5627 -2.56442 -1.0423 -14.7655 -2.32859 -1.09985 -14.7073 -2.32858 -1.09985 -14.7073 -2.32857 -1.09985 -14.7073 -2.23596 -1.