<?xml version="1.0"?><VTKFile type="PolyData" version="0.1" byte_order="LittleEndian">
<PolyData>
<Piece NumberOfLines="54" NumberOfPoints="570">
<PointData Scalars=" PointData">
<DataArray type="Float32" Name="time" NumberOfComponents="1" format="ascii" >
0 0.211339 0.669815 1.15391 1.63312 2.10717 2.60524 3.10031 3.6065 4.10913 4.6331 5.17115 5.68843 6.20475 6.73823 7.30893 7.87579 8.45213 9.04506 9.63604 10.2678 10.899 11.5129 12.1447 12.7909 13.4636 14.1375 14.8099 15.5022 16.202 16.9175 17.655 18.4199 19.2 20.0074 20.7891 21.6461 22.481 23.3551 24.2488 25.1673 26.0709 26.9947 27.9644 28.965 29.9805 31.0494 32.0985 33.2153 34.3508 35.5481 36.7679 38.0911 39.3691 40.7494 42.1425 43.6347 45 1.6473 3.05104 4.62029 6.39936 8.45314 10.8823 13.8552 17.6881 23.0902 32.3251 45 2.12414 3.33951 4.69817 6.23849 8.01665 10.1198 12.6938 16.0123 20.6894 28.6851 45 2.6279 3.76764 5.04176 6.48624 8.15377 10.126 12.5399 15.6519 20.038 27.5362 45 3.12683 4.28508 5.5799 7.04783 8.74245 10.7467 13.1998 16.3624 20.8197 28.4396 45 3.62066 4.74506 6 7.42474 9.06943 11.0146 13.3951 16.4639 20.7883 28.1774 45 4.1398 5.54267 7.11096 8.88894 10.9415 13.3691 16.3402 20.1707 25.5695 34.7988 45 4.65611 6.30912 8.15703 10.252 12.6705 15.531 19.0319 23.5454 29.9068 40.7817 45 5.18432 6.36083 7.67604 9.16711 10.8884 12.9243 15.416 18.6284 23.156 30.896 45 5.70914 6.88664 8.20297 9.69531 11.4181 13.4557 15.9495 19.1646 23.6961 31.4426 45 6.25658 7.5236 8.94001 10.5458 12.3996 14.5921 17.2755 20.7351 25.611 33.9465 45 6.81909 8.11463 9.56293 11.2049 13.1003 15.3422 18.0861 21.6235 26.6092 35.1323 45 7.36025 8.8649 10.547 12.4539 14.6553 17.2591 20.4458 24.5541 30.3446 40.2434 45 7.90075 8.95702 10.1378 11.4765 13.0219 14.8497 17.0868 19.9709 24.0358 30.9848 45 8.4596 9.58112 10.8349 12.2563 13.8971 15.8379 18.2132 21.2754 25.5914 32.9697 45 9.05786 10.3821 11.8624 13.5407 15.4781 17.7695 20.5741 24.1898 29.2858 37.9975 45 9.65254 10.8056 12.0945 13.5558 15.2428 17.238 19.68 22.8283 27.2655 34.851 45 10.2576 11.6006 13.1018 14.8038 16.7686 19.0924 21.9366 25.6033 30.7713 39.6061 45 10.8807 12.1435 13.5553 15.1559 17.0036 19.1889 21.8636 25.3119 30.1719 38.4802 45 11.5021 12.8174 14.2879 15.9549 17.8793 20.1554 22.9411 26.5325 31.5943 40.2476 45 12.1671 13.3573 14.6878 16.1963 17.9377 19.9973 22.5181 25.7679 30.3483 38.1785 45 12.832 14.1362 15.5943 17.2472 19.1555 21.4124 24.1747 27.7359 32.7551 41.3355 45 13.4793 14.7099 16.0856 17.6453 19.4458 21.5754 24.1817 27.5419 32.2778 40.3738 45 14.1462 15.2592 16.5034 17.914 19.5425 21.4685 23.8257 26.8648 31.148 38.4704 45 14.8288 16.029 17.3706 18.8917 20.6476 22.7244 25.2662 28.5432 33.1618 41.0574 45 15.5402 16.7722 18.1494 19.7107 21.5132 23.6451 26.2542 29.6181 34.3591 42.464 45 16.2536 17.4095 18.7016 20.1665 21.8575 23.8577 26.3056 29.4616 33.9097 41.5137 45 16.9662 18.1715 19.5189 21.0465 22.81 24.8957 27.4484 30.7394 35.3778 43.3072 45 17.7007 19.0741 20.6093 22.3499 24.3592 26.7357 29.6443 33.3942 38.6793 45 18.4441 19.7034 21.1111 22.7071 24.5496 26.7287 29.3957 32.8342 37.6804 45 19.205 20.4282 21.7956 23.3458 25.1354 27.252 29.8425 33.1823 37.8895 45 19.9903 21.3638 22.8993 24.6401 26.6497 29.0265 31.9355 35.6859 40.9717 45 20.8059 22.0569 23.4554 25.0409 26.8712 29.036 31.6855 35.1013 39.9156 45 21.6389 22.74 23.9709 25.3664 26.9774 28.8827 31.2147 34.2212 38.4585 45 22.5023 23.8148 25.282 26.9454 28.8657 31.1368 33.9166 37.5002 42.5511 45 23.3395 24.5153 25.8297 27.3198 29.0401 31.0748 33.565 36.7754 41.3003 45 24.2588 25.5163 26.9222 28.5159 30.3558 32.532 35.1954 38.629 43.4686 45 25.1559 26.2376 27.4467 28.8175 30.4 32.2717 34.5624 37.5157 41.6782 45 26.0968 27.4039 28.8652 30.5218 32.4342 34.6962 37.4646 41.0337 45 27.0606 28.0656 29.189 30.4627 31.9331 33.6722 35.8006 38.5447 42.4122 45 28.053 29.3238 30.7445 32.355 34.2143 36.4133 39.1047 42.5746 45 29.0314 30.1619 31.4256 32.8584 34.5124 36.4686 38.8629 41.9496 45 30.0336 31.2295 32.5664 34.0821 35.8319 37.9014 40.4342 43.6996 45 31.0881 32.2987 33.652 35.1863 36.9574 39.0523 41.6162 44.9217 45 32.1787 33.4174 34.8021 36.3721 38.1844 40.328 42.9514 45 33.2882 34.4423 35.7325 37.1951 38.8836 40.8807 43.325 45 34.4594 35.4969 36.6566 37.9715 39.4894 41.2847 43.482 45 35.612 36.7704 38.0654 39.5335 41.2283 43.2328 45 36.8426 38.3369 40.0074 41.9013 44.0876 45 38.0978 39.2607 40.5607 42.0346 43.736 45 39.4259 40.6677 42.0559 43.6298 45 40.7838 41.7703 42.8731 44.1233 45 42.2627 43.3252 44.513 45 43.6972 44.8149 45 
</DataArray>

</PointData>
<CellData Scalars=" CellData">
<DataArray type="Float32" Name="radius" NumberOfComponents="1" format="ascii" >
0.0388418 0.0272101 0.0278283 0.026074 0.0237808 0.0309707 0.0310928 0.0265405 0.026586 0.0358169 0.029361 0.0309521 0.0252267 0.0265704 0.0307151 0.0244179 0.0288229 0.0256007 0.0252837 0.024643 0.0248791 0.0279805 0.0246617 0.0324293 0.0244086 0.0246558 0.0310107 0.0292092 0.031013 0.0266263 0.0287236 0.0288371 0.0283655 0.0249593 0.0283813 0.0282311 0.0244452 0.0291762 0.02239 0.0308915 0.0286877 0.0305186 0.0294934 0.0261704 0.0329806 0.0306734 0.0250052 0.029093 0.0264304 0.0305588 0.0294414 0.0308248 0.0280086 0.0272563 
</DataArray>
<DataArray type="Float32" Name="subType" NumberOfComponents="1" format="ascii" >
1 2 2 2 2 2 2 2 2 2 2 2 2 2 2 2 2 2 2 2 2 2 2 2 2 2 2 2 2 2 2 2 2 2 2 2 2 2 2 2 2 2 2 2 2 2 2 2 2 2 2 2 2 2 
</DataArray>
<DataArray type="Float32" Name="creationTime" NumberOfComponents="1" format="ascii" >
0 1.6473 2.12414 2.6279 3.12683 3.62066 4.1398 4.65611 5.18432 5.70914 6.25658 6.81909 7.36025 7.90075 8.4596 9.05786 9.65254 10.2576 10.8807 11.5021 12.1671 12.832 13.4793 14.1462 14.8288 15.5402 16.2536 16.9662 17.7007 18.4441 19.205 19.9903 20.8059 21.6389 22.5023 23.3395 24.2588 25.1559 26.0968 27.0606 28.053 29.0314 30.0336 31.0881 32.1787 33.2882 34.4594 35.612 36.8426 38.0978 39.4259 40.7838 42.2627 43.6972 
</DataArray>

</CellData>
<Points>
<DataArray type="Float32" Name="Coordinates" NumberOfComponents="3" format="ascii" >
0 0 -3 -0.0303927 -0.014203 -3.4125 -0.067346 -0.0560172 -4.30043 -0.0639298 -0.0733862 -5.22771 -0.0665776 -0.0834685 -6.13379 -0.0367042 -0.164589 -7.01442 -0.0164863 -0.252444 -7.92744 -0.0516247 -0.338573 -8.82235 -0.0832203 -0.354449 -9.72916 0.00926339 -0.579948 -10.5839 0.112832 -0.641563 -11.4897 0.249757 -0.715317 -12.4014 0.430091 -0.734191 -13.2589 0.604056 -0.773723 -14.1029 0.874166 -0.84428 -14.9361 1.06428 -0.964245 -15.8344 1.32231 -1.0599 -16.6972 1.44447 -1.22538 -17.5802 1.5731 -1.30268 -18.4858 1.47177 -1.44157 -19.3696 1.45364 -1.55836 -20.3088 1.55281 -1.49855 -21.2313 1.49731 -1.53229 -22.1179 1.44623 -1.57719 -23.015 1.412 -1.56663 -23.9185 1.34378 -1.53702 -24.8402 1.28184 -1.50279 -25.7469 1.26515 -1.63359 -26.6281 1.32166 -1.71712 -27.5229 1.47079 -1.91051 -28.3821 1.42047 -2.02665 -29.2689 1.34911 -1.95075 -30.1682 1.25052 -1.95214 -31.0829 1.17535 -1.93932 -31.9985 1.09518 -2.02533 -32.9216 1.17969 -2.1288 -33.7932 1.15463 -2.14466 -34.7381 1.09544 -2.35055 -35.6124 0.91948 -2.4424 -36.5114 0.77133 -2.57356 -37.4089 0.618063 -2.55341 -38.3173 0.445298 -2.42943 -39.1758 0.226122 -2.2971 -40.0197 0.169813 -2.04813 -40.8852 0.31813 -1.90665 -41.7681 0.363721 -1.72549 -42.6434 0.471988 -1.64993 -43.5497 0.517942 -1.80698 -44.4076 0.580997 -1.99569 -45.2881 0.681396 -2.18518 -46.1521 0.70031 -2.24101 -47.0595 0.562253 -2.23153 -47.9452 0.349615 -2.21218 -48.86 0.163578 -2.2265 -49.7158 0.102416 -2.37372 -50.6141 0.161128 -2.28474 -51.4944 0.261021 -2.21831 -52.3998 0.379609 -2.00908 -53.1668 -0.0303927 -0.014203 -3.4125 0.74591 0.599623 -3.55592 1.68752 0.926494 -3.63675 2.6678 1.12277 -3.65969 3.66161 1.23137 -3.63642 4.65669 1.21457 -3.53882 5.65069 1.18478 -3.43359 6.64484 1.07692 -3.42763 7.64292 1.08189 -3.48936 8.55459 1.11858 -3.89864 9.10075 1.21806 -4.16044 -0.067346 -0.0560172 -4.30043 -0.780487 0.644571 -4.27583 -1.44726 1.3692 -4.44997 -2.29848 1.84782 -4.66527 -3.05315 2.47401 -4.86111 -3.89828 2.91459 -5.16384 -4.72816 3.29142 -5.5753 -5.49398 3.51289 -6.17901 -6.29615 3.8175 -6.69256 -7.10381 4.11494 -7.2017 -7.7415 4.34561 -7.53796 -0.0639298 -0.0733862 -5.22771 0.908461 -0.255916 -5.3731 1.85087 -0.442436 -5.65071 2.30358 -0.834356 -6.45162 2.66542 -1.14064 -7.33211 2.79605 -1.49049 -8.25976 2.81064 -1.78443 -9.21548 2.83373 -2.15033 -10.1458 2.92915 -2.45088 -11.0948 3.01648 -2.69549 -12.0605 3.16833 -2.9278 -12.8119 -0.0665776 -0.0834685 -6.13379 0.487189 0.731608 -6.30407 1.10952 1.46234 -6.58467 1.69043 2.115 -7.07106 2.30995 2.73245 -7.55577 2.93011 3.33839 -8.05401 3.49269 3.95375 -8.60612 4.0838 4.5131 -9.18726 4.75786 5.04704 -9.69771 5.17127 5.45095 -10.5138 5.50924 5.71308 -11.164 -0.0367042 -0.164589 -7.01442 -0.748494 0.537358 -6.9894 -1.43871 1.24988 -6.87588 -2.15362 1.91519 -6.66077 -2.84099 2.6303 -6.53371 -3.5218 3.35981 -6.46818 -4.22034 4.07343 -6.41532 -4.95766 4.73448 -6.27612 -5.72939 5.36315 -6.18017 -6.38769 6.11494 -6.14206 -6.88259 6.7356 -6.10974 -0.0164863 -0.252444 -7.92744 -0.8601 -0.78522 -7.99427 -1.69426 -1.32002 -8.12906 -2.51832 -1.86829 -8.27165 -3.34579 -2.40705 -8.42983 -4.17372 -2.9451 -8.58805 -5.06913 -3.22755 -8.93224 -5.97381 -3.26286 -9.35686 -6.84469 -3.20402 -9.84482 -7.71072 -3.26879 -10.3406 -8.12442 -3.29272 -10.6793 -0.0516247 -0.338573 -8.82235 -1.04054 -0.454247 -8.91543 -2.02295 -0.611967 -9.01543 -2.88218 -1.11447 -9.11138 -3.72986 -1.63395 -9.21902 -4.48815 -2.2079 -9.52818 -5.23126 -2.68741 -9.99494 -5.98881 -3.05388 -10.5351 -6.72748 -3.26053 -11.1767 -7.44025 -3.45521 -11.8506 -7.58822 -3.51438 -12.0243 -0.0832203 -0.354449 -9.72916 -0.397174 0.572122 -9.93628 -0.820784 1.42034 -10.2542 -1.25954 2.25659 -10.5831 -1.85887 2.94748 -10.9874 -2.52823 3.40775 -11.5706 -3.1649 3.73651 -12.2682 -3.71255 4.02841 -13.0523 -4.28811 4.3899 -13.7858 -4.83548 4.69881 -14.5636 -5.17687 4.90587 -15.1594 0.00926339 -0.579948 -10.5839 0.92389 -0.660698 -10.1878 1.8343 -0.667595 -9.77413 2.74382 -0.67421 -9.35853 3.72213 -0.856779 -9.26063 4.71861 -0.940083 -9.27002 5.66686 -0.774887 -9.54118 6.61671 -0.613647 -9.8091 7.53848 -0.726566 -10.18 8.4354 -0.809034 -10.6145 9.00019 -0.972508 -10.9993 0.112832 -0.641563 -11.4897 0.278996 0.313244 -11.2433 0.50482 1.28595 -11.19 1.00644 2.12227 -11.4112 1.48871 2.95615 -11.6796 2.09443 3.65129 -12.0668 2.59836 4.48426 -12.2953 3.09026 5.32036 -12.5382 3.54478 6.16921 -12.8081 3.99427 7.01198 -13.1042 4.15322 7.55616 -13.3042 0.249757 -0.715317 -12.4014 -0.458348 -1.4182 -12.4687 -1.17348 -2.10511 -12.5981 -1.95807 -2.69051 -12.8024 -2.73087 -3.29167 -13.0059 -3.38372 -3.78691 -13.579 -3.82183 -4.09753 -14.4226 -4.08879 -4.46541 -15.3133 -4.26508 -4.67928 -16.2741 -4.16243 -4.96781 -17.2261 -4.09972 -5.01954 -17.7718 0.430091 -0.734191 -13.2589 0.0604384 -1.6518 -13.405 -0.457721 -2.38664 -13.8426 -0.932222 -3.13434 -14.3072 -1.37185 -3.82473 -14.8817 -1.74832 -4.53037 -15.482 -1.99857 -5.21412 -16.1675 -2.20612 -5.79217 -16.9566 -2.36748 -6.33344 -17.7819 -2.50275 -6.80323 -18.6542 -2.54723 -6.93502 -18.901 0.604056 -0.773723 -14.1029 1.37077 -1.41104 -14.0255 2.26066 -1.85494 -14.1306 3.13046 -2.34819 -14.143 4.11492 -2.51095 -14.2088 5.08488 -2.74483 -14.2758 6.05429 -2.67518 -14.5112 6.89801 -2.39665 -14.97 7.80881 -2.31331 -15.3744 8.61582 -2.09089 -15.9214 9.25282 -1.92029 -16.2847 0.874166 -0.84428 -14.9361 0.250575 -1.62355 -14.9984 -0.360445 -2.37094 -15.2592 -0.822368 -3.21058 -15.5449 -1.42459 -3.8538 -16.0178 -1.99346 -4.35245 -16.6718 -2.4776 -4.83354 -17.4027 -2.62853 -5.38027 -18.2263 -2.82676 -5.92317 -19.0423 -2.92265 -6.5223 -19.8372 -3.00143 -6.93486 -20.3682 1.06428 -0.964245 -15.8344 1.29962 -1.92625 -15.6959 1.60474 -2.87767 -15.737 2.02202 -3.78322 -15.8136 2.47452 -4.6712 -15.8956 2.85897 -5.54057 -16.206 3.37172 -6.37198 -16.4202 3.889 -7.16851 -16.7332 4.41547 -7.89547 -17.174 4.82588 -8.58494 -17.7708 4.9631 -8.88766 -18.0392 1.32231 -1.0599 -16.6972 1.76644 -1.95534 -16.7276 2.22608 -2.82698 -16.8978 2.70811 -3.68527 -17.0739 3.35778 -4.4434 -17.1301 3.88563 -5.27502 -17.3027 4.41973 -6.09825 -17.4951 4.99898 -6.83622 -17.8413 5.51172 -7.6068 -18.2199 5.79087 -8.44016 -18.6969 5.94168 -8.9123 -19.0429 1.44447 -1.22538 -17.5802 2.40278 -1.3622 -17.3293 3.36784 -1.50831 -17.1118 4.32846 -1.65431 -16.8754 5.30757 -1.79978 -16.7333 6.28872 -1.94788 -16.6092 7.27246 -2.06852 -16.7422 8.24379 -2.11083 -16.9761 9.14039 -2.20162 -17.4096 9.92686 -2.24022 -18.026 10.1984 -2.25851 -18.2381 1.5731 -1.30268 -18.4858 2.36489 -1.86478 -18.7248 3.16734 -2.37866 -19.0281 4.03786 -2.5475 -19.4904 4.77492 -2.46519 -20.1612 5.39296 -2.28484 -20.9264 5.98951 -2.07765 -21.7017 6.58214 -1.88467 -22.4837 6.8037 -1.8024 -23.4554 6.91001 -1.70672 -24.4451 6.96168 -1.66366 -24.8592 1.47177 -1.44157 -19.3696 1.60083 -0.555025 -19.8139 1.55182 0.32543 -20.2855 1.51719 1.09824 -20.9192 1.5176 1.86991 -21.5552 1.53302 2.5447 -22.293 1.56544 3.1718 -23.0713 1.67279 3.75678 -23.8752 1.93391 3.99789 -24.8099 1.96876 4.11152 -25.8028 2.00657 4.15597 -26.114 1.45364 -1.55836 -20.3088 1.26066 -0.749788 -20.8647 1.09347 0.0350254 -21.4615 0.588517 0.528019 -22.17 0.0622904 1.10585 -22.7938 -0.472776 1.64603 -23.4434 -1.00913 2.1634 -24.1102 -1.51823 2.577 -24.865 -1.93216 2.80875 -25.7453 -2.17261 3.2212 -26.624 -2.26255 3.42458 -27.019 1.55281 -1.49855 -21.2313 0.723261 -2.00848 -21.4589 -0.0265996 -2.66215 -21.561 -0.76884 -3.31996 -21.6889 -1.50442 -3.97808 -21.8496 -2.23601 -4.5261 -22.2551 -2.95652 -5.09445 -22.6524 -3.69657 -5.64664 -23.0363 -4.40459 -5.95928 -23.6695 -4.87365 -6.14633 -24.5327 -4.99493 -6.19396 -24.7533 1.49731 -1.53229 -22.1179 2.27732 -2.15795 -22.1066 3.03264 -2.80784 -22.0221 3.82578 -3.41398 -21.9627 4.5907 -4.05521 -21.9017 5.37468 -4.66585 -22.0135 6.18717 -5.23287 -22.149 6.95338 -5.7704 -22.5011 7.75742 -6.20623 -22.9056 8.54304 -6.72006 -23.2502 8.80114 -6.88271 -23.368 1.44623 -1.57719 -23.015 0.547752 -1.93686 -22.7633 -0.360027 -2.33603 -22.6344 -1.22225 -2.84017 -22.5853 -2.03957 -3.34601 -22.8612 -2.61992 -3.98201 -23.3698 -3.10049 -4.70596 -23.8647 -3.59944 -5.29464 -24.5007 -4.16715 -5.8162 -25.1376 -4.45596 -6.25062 -25.9908 -4.56986 -6.46363 -26.3835 1.412 -1.56663 -23.9185 1.30768 -0.572322 -23.9402 1.23165 0.422795 -24.0032 1.2238 1.42041 -24.0718 1.2633 2.40662 -24.2325 1.44724 3.37451 -24.4038 2.05631 4.16724 -24.4286 2.82933 4.77778 -24.6009 3.55824 5.43488 -24.793 4.09852 6.25313 -24.9894 4.27064 6.48003 -25.0563 1.34378 -1.53702 -24.8402 1.78617 -2.42288 -24.98 2.22809 -3.30664 -25.1338 2.90231 -4.02408 -25.3091 3.70677 -4.58855 -25.4941 4.45758 -5.17338 -25.801 5.05772 -5.88611 -26.1642 5.63528 -6.62967 -26.5011 6.30662 -7.16099 -27.0179 7.1923 -7.48447 -27.3509 7.36112 -7.5377 -27.4327 1.28184 -1.50279 -25.7469 0.294805 -1.3423 -25.7461 -0.645277 -1.08828 -25.9735 -1.58614 -0.829955 -26.1927 -2.46788 -0.644437 -26.6264 -3.33971 -0.457783 -27.0793 -4.14941 -0.331971 -27.6525 -4.97234 -0.20345 -28.2059 -5.73323 -0.117927 -28.8491 -6.3971 -0.106843 -29.5969 -6.57759 -0.103666 -29.8007 1.26515 -1.63359 -26.6281 2.15769 -1.26496 -26.8879 3.02697 -0.869227 -27.1841 3.83769 -0.368108 -27.4868 4.6155 0.165389 -27.819 5.222 0.854552 -28.2155 5.89204 1.52641 -28.5312 6.40556 2.12484 -29.1462 6.87879 2.60156 -29.887 7.06375 3.014 -30.779 7.09002 3.06948 -30.9021 1.32166 -1.71712 -27.5229 0.903426 -0.831514 -27.7248 0.571826 0.0917734 -27.9187 0.0693745 0.861069 -28.3133 -0.378032 1.68454 -28.6622 -0.772973 2.51007 -29.0653 -1.1813 3.25917 -29.587 -1.56849 3.99992 -30.136 -1.9503 4.75011 -30.6758 -2.27533 5.23938 -31.1714 1.47079 -1.91051 -28.3821 1.47725 -2.90673 -28.2954 1.58155 -3.89547 -28.4026 1.76799 -4.87144 -28.5155 1.92007 -5.81129 -28.8213 2.03909 -6.76541 -29.0961 2.13903 -7.71489 -29.3936 2.29357 -8.67048 -29.6445 2.29652 -9.59496 -30.0257 2.30272 -10.4467 -30.3625 1.42047 -2.02665 -29.2689 2.39272 -2.13767 -29.4749 3.34918 -2.33691 -29.6882 4.26602 -2.63746 -29.951 5.04676 -2.78061 -30.5592 5.77771 -2.9182 -31.2276 6.14745 -2.79964 -32.1492 6.58653 -2.78449 -33.0475 6.97143 -2.82265 -33.9697 7.11993 -2.90218 -34.87 1.34911 -1.95075 -30.1682 2.29563 -2.08231 -30.4628 3.21974 -2.20256 -30.8255 4.12811 -2.24668 -31.2413 5.03909 -2.2803 -31.6524 5.98596 -2.26365 -31.9736 6.95541 -2.22318 -32.2155 7.93359 -2.18208 -32.4192 8.93065 -2.11227 -32.4509 9.45954 -2.05913 -32.4606 1.25052 -1.95214 -31.0829 0.275839 -2.16051 -31.164 -0.667316 -2.43708 -31.3483 -1.61207 -2.70198 -31.5413 -2.57287 -2.78651 -31.8054 -3.38098 -2.93211 -32.3761 -4.01724 -3.10473 -33.128 -4.69547 -3.03636 -33.8597 -5.40898 -3.02568 -34.5603 -5.90942 -2.93413 -35.0362 1.17535 -1.93932 -31.9985 1.28687 -2.93123 -32.0591 1.28563 -3.92552 -32.1659 1.24249 -4.91808 -32.2797 1.20035 -5.91073 -32.3931 1.24992 -6.8702 -32.6706 1.12813 -7.781 -33.065 0.761991 -8.50848 -33.6453 0.704905 -9.05215 -34.4827 0.533759 -9.39769 -35.3295 1.09518 -2.02533 -32.9216 1.71711 -1.34002 -33.3005 2.35683 -0.681031 -33.6961 3.05124 -0.117602 -34.1437 3.75444 0.333635 -34.6932 4.49856 0.64342 -35.285 5.25217 1.0002 -35.8371 5.92108 1.36123 -36.4869 6.48185 1.75564 -37.2149 6.68959 1.89461 -37.4697 1.17969 -2.1288 -33.7932 1.92239 -1.48859 -33.9895 2.68875 -0.890868 -34.2249 3.44185 -0.302746 -34.5198 4.00347 0.459135 -34.8424 4.63568 1.06673 -35.3232 5.27391 1.6747 -35.7955 5.91621 2.12844 -36.4132 6.50838 2.55099 -37.0993 6.75984 2.86323 -37.4965 1.15463 -2.14466 -34.7381 1.88059 -2.82934 -34.8029 2.61521 -3.50526 -34.8618 3.09424 -4.21962 -35.3719 3.49601 -4.99212 -35.8637 3.90114 -5.76662 -36.3495 4.23375 -6.52353 -36.912 4.25429 -7.25852 -37.5898 4.28335 -7.92904 -38.3311 4.30343 -8.0999 -38.4996 1.09544 -2.35055 -35.6124 1.09046 -1.41465 -35.9646 1.1793 -0.50043 -36.36 1.25905 0.417165 -36.7494 1.23081 1.21884 -37.3465 1.26517 2.03829 -37.9186 1.47514 2.76309 -38.5748 1.69579 3.4285 -39.2879 1.79418 3.98372 -40.1138 1.88621 4.25802 -40.585 0.91948 -2.4424 -36.5114 0.9835 -3.42754 -36.352 1.16616 -4.39391 -36.171 1.22641 -5.38281 -36.0352 1.54939 -6.31317 -35.8617 1.66162 -7.30609 -35.9007 1.9474 -8.21498 -36.2044 2.26946 -9.06728 -36.6166 2.53891 -9.76288 -36.9592 0.77133 -2.57356 -37.4089 1.7183 -2.82679 -37.6067 2.64325 -3.11181 -37.8581 3.55002 -3.37282 -38.1892 4.34584 -3.96152 -38.331 5.06847 -4.56384 -38.6702 5.67046 -5.253 -39.0735 6.43589 -5.55588 -39.6413 7.20519 -5.33995 -40.2426 7.56225 -5.2275 -40.5353 0.618063 -2.55341 -38.3173 0.44432 -1.58387 -38.49 0.302348 -0.625909 -38.7393 -0.0578466 0.231753 -39.1063 -0.431249 1.08158 -39.4783 -0.799267 1.63479 -40.2256 -1.11878 2.19087 -40.9929 -1.43566 2.70603 -41.7892 -1.57382 2.96365 -42.2509 0.445298 -2.42943 -39.1758 1.43147 -2.26385 -39.1823 2.40712 -2.07544 -39.2946 3.36015 -1.82884 -39.4704 4.29905 -1.53011 -39.6414 5.07432 -1.07997 -40.0845 5.92523 -0.689318 -40.4357 6.7318 -0.298224 -40.879 7.31272 -0.0753559 -41.2839 0.226122 -2.2971 -40.0197 -0.606858 -1.76426 -39.8706 -1.43959 -1.2311 -39.7213 -2.3571 -0.840097 -39.6485 -3.29983 -0.507416 -39.6244 -4.20277 -0.219836 -39.9438 -5.09311 -0.0232292 -40.3544 -6.01885 -0.0332772 -40.7325 -6.31862 -0.0438257 -40.8568 0.169813 -2.04813 -40.8852 0.258563 -1.13581 -40.4854 0.377917 -0.178185 -40.2233 0.639839 0.742251 -39.9332 1.01301 1.65737 -39.7805 1.37394 2.58199 -39.6588 2.06769 3.29161 -39.5358 2.89019 3.85708 -39.597 2.90702 3.86845 -39.5987 0.31813 -1.90665 -41.7681 1.19498 -2.35931 -41.6061 2.08248 -2.80361 -41.4839 3.0084 -3.18124 -41.4757 3.8972 -3.54057 -41.7601 4.78524 -3.89763 -42.0498 5.625 -4.26678 -42.4479 6.16679 -4.55629 -42.6262 0.363721 -1.72549 -42.6434 0.0760206 -0.77076 -42.719 -0.242028 0.176669 -42.754 -0.550693 1.11424 -42.5937 -0.80587 2.08076 -42.5666 -1.06817 3.04533 -42.5385 -1.36544 3.99944 -42.5022 -1.48381 4.55402 -42.5143 0.471988 -1.64993 -43.5497 -0.51518 -1.52961 -43.6547 -1.35264 -1.41134 -44.1883 -2.17895 -1.18341 -44.7033 -2.98016 -0.954662 -45.2562 -3.7642 -0.846086 -45.8674 -4.52932 -0.740348 -46.5025 -5.00218 -0.749007 -46.8233 0.517942 -1.80698 -44.4076 -0.300697 -1.24797 -44.5393 -1.08484 -0.633229 -44.6243 -1.88423 -0.0467604 -44.7547 -2.53775 0.560746 -45.2062 -3.33292 1.01511 -45.6078 -3.91075 1.20418 -46.0338 0.580997 -1.99569 -45.2881 -0.130316 -2.68497 -45.4256 -0.885235 -3.31714 -45.6002 -1.60642 -3.98385 -45.7883 -2.31882 -4.65469 -45.9944 -2.54443 -4.94068 -46.0784 0.681396 -2.18518 -46.1521 1.35877 -2.91326 -46.2573 2.03964 -3.64224 -46.328 2.83219 -4.25147 -46.3547 3.65777 -4.79418 -46.5092 4.16747 -5.18403 -46.6079 0.70031 -2.24101 -47.0595 1.65929 -2.52437 -47.0681 2.60762 -2.84139 -47.0553 3.58717 -3.034 -47.1134 4.33751 -3.19566 -47.1462 0.562253 -2.23153 -47.9452 1.15533 -1.4507 -48.1416 1.77566 -0.714301 -48.4116 2.40449 -0.0749038 -48.854 2.7717 0.335514 -49.1509 0.349615 -2.21218 -48.86 0.244224 -1.23737 -49.0566 -0.0698556 -0.358192 -49.4149 -0.191635 -0.0335811 -49.5635 0.163578 -2.2265 -49.7158 0.143879 -1.2697 -50.0059 0.142404 -1.1202 -50.0493 
</DataArray>
</Points>
<Lines>
<DataArray type="Int32" Name="connectivity" NumberOfComponents="1" format="ascii" >
0 1 2 3 4 5 6 7 8 9 10 11 12 13 14 15 16 17 18 19 20 21 22 23 24 25 26 27 28 29 30 31 32 33 34 35 36 37 38 39 40 41 42 43 44 45 46 47 48 49 50 51 52 53 54 55 56 57 58 59 60 61 62 63 64 65 66 67 68 69 70 71 72 73 74 75 76 77 78 79 80 81 82 83 84 85 86 87 88 89 90 91 92 93 94 95 96 97 98 99 100 101 102 103 104 105 106 107 108 109 110 111 112 113 114 115 116 117 118 119 120 121 122 123 124 125 126 127 128 129 130 131 132 133 134 135 136 137 138 139 140 141 142 143 144 145 146 147 148 149 150 151 152 153 154 155 156 157 158 159 160 161 162 163 164 165 166 167 168 169 170 171 172 173 174 175 176 177 178 179 180 181 182 183 184 185 186 187 188 189 190 191 192 193 194 195 196 197 198 199 200 201 202 203 204 205 206 207 208 209 210 211 212 213 214 215 216 217 218 219 220 221 222 223 224 225 226 227 228 229 230 231 232 233 234 235 236 237 238 239 240 241 242 243 244 245 246 247 248 249 250 251 252 253 254 255 256 257 258 259 260 261 262 263 264 265 266 267 268 269 270 271 272 273 274 275 276 277 278 279 280 281 282 283 284 285 286 287 288 289 290 291 292 293 294 295 296 297 298 299 300 301 302 303 304 305 306 307 308 309 310 311 312 313 314 315 316 317 318 319 320 321 322 323 324 325 326 327 328 329 330 331 332 333 334 335 336 337 338 339 340 341 342 343 344 345 346 347 348 349 350 351 352 353 354 355 356 357 358 359 360 361 362 363 364 365 366 367 368 369 370 371 372 373 374 375 376 377 378 379 380 381 382 383 384 385 386 387 388 389 390 391 392 393 394 395 396 397 398 399 400 401 402 403 404 405 406 407 408 409 410 411 412 413 414 415 416 417 418 419 420 421 422 423 424 425 426 427 428 429 430 431 432 433 434 435 436 437 438 439 440 441 442 443 444 445 446 447 448 449 450 451 452 453 454 455 456 457 458 459 460 461 462 463 464 465 466 467 468 469 470 471 472 473 474 475 476 477 478 479 480 481 482 483 484 485 486 487 488 489 490 491 492 493 494 495 496 497 498 499 500 501 502 503 504 505 506 507 508 509 510 511 512 513 514 515 516 517 518 519 520 521 522 523 524 525 526 527 528 529 530 531 532 533 534 535 536 537 538 539 540 541 542 543 544 545 546 547 548 549 550 551 552 553 554 555 556 557 558 559 560 561 562 563 564 565 566 567 568 569 
</DataArray>
<DataArray type="Int32" Name="offsets" NumberOfComponents="1" format="ascii" >
58 69 80 91 102 113 124 135 146 157 168 179 190 201 212 223 234 245 256 267 278 289 300 311 322 333 344 355 365 375 385 395 405 415 425 435 445 455 464 474 483 492 501 510 518 526 534 541 547 553 558 563 567 570 
</DataArray>

</Lines>
</Piece>
</PolyData>
</VTKFile>
