<?xml version="1.0"?><VTKFile type="PolyData" version="0.1" byte_order="LittleEndian">
<PolyData>
<Piece NumberOfLines="6" NumberOfPoints="68">
<PointData Scalars=" PointData">
<DataArray type="Float32" Name="time" NumberOfComponents="1" format="ascii" >
0 0.138139 0.438321 0.739754 0.784104 1.08698 1.38767 1.69309 1.97104 2.27894 2.58816 2.62144 2.93213 3.24416 3.28963 3.60321 3.91816 3.96803 4.28457 4.53318 4.85221 5.05195 5.37328 5.67306 5.99717 6.32273 6.33077 6.65785 6.95996 7.2899 7.53792 7.87051 8.20464 8.33309 8.66936 8.95779 9.29699 9.59236 9.93456 10 7.69963 8.38792 9.0833 9.78589 10 8.41713 9.04993 9.68923 10 9.08818 9.78047 10 9.73737 10 7 7.14626 7.47622 7.80757 7.8392 8.1721 8.50642 8.5331 8.86897 9.12579 9.46422 9.80412 9.86741 10 
</DataArray>

</PointData>
<CellData Scalars=" CellData">
<DataArray type="Float32" Name="radius" NumberOfComponents="1" format="ascii" >
0.115682 0.0550016 0.047712 0.0572864 0.0436387 0.122106 
</DataArray>
<DataArray type="Float32" Name="subType" NumberOfComponents="1" format="ascii" >
1 2 2 2 2 4 
</DataArray>
<DataArray type="Float32" Name="creationTime" NumberOfComponents="1" format="ascii" >
0 7.69963 8.41713 9.08818 9.73737 7 
</DataArray>

</CellData>
<Points>
<DataArray type="Float32" Name="Coordinates" NumberOfComponents="3" format="ascii" >
0 0 -3 0.281893 -0.298309 -3.2112 0.793396 -1.08166 -3.56436 1.31845 -1.85133 -3.92758 1.39673 -1.96341 -3.98102 1.74506 -2.71048 -4.54719 2.09512 -3.4473 -5.1057 2.52688 -4.17242 -5.64215 2.92798 -4.82643 -6.12475 3.36243 -5.52465 -6.69374 3.82855 -6.19642 -7.26946 3.87866 -6.26863 -7.33115 4.21611 -6.93376 -7.99729 4.44168 -7.53331 -8.76517 4.47493 -7.62117 -8.87611 4.4432 -8.23307 -9.66641 4.45301 -8.75273 -10.5207 4.4543 -8.83587 -10.655 4.49961 -9.34797 -11.5127 4.54617 -9.77911 -12.1639 4.66556 -10.3083 -13.004 4.74704 -10.5551 -13.5711 4.84709 -10.8802 -14.5115 4.97412 -11.1414 -15.3939 5.10426 -11.4052 -16.3496 5.16258 -11.5698 -17.3343 5.16386 -11.5739 -17.3585 5.15464 -11.6659 -18.3542 5.30476 -11.5968 -19.2589 5.48459 -11.5467 -20.2414 5.56656 -11.4842 -20.983 5.7406 -11.4169 -21.9654 5.88263 -11.3001 -22.9483 5.94669 -11.2683 -23.3248 6.07815 -11.1795 -24.3122 6.14366 -11.0723 -25.1569 6.1479 -10.9527 -26.1497 6.11349 -10.8745 -27.0124 6.12953 -10.7756 -28.0074 6.13137 -10.7615 -28.1976 0.281893 -0.298309 -3.2112 0.945316 0.0316616 -2.53964 1.60413 0.342108 -1.85438 2.25258 0.635879 -1.15209 2.43071 0.73649 -0.929004 1.39673 -1.96341 -3.98102 0.805293 -2.50456 -3.38323 0.256606 -3.05626 -2.75508 -0.0087469 -3.31049 -2.44256 2.09512 -3.4473 -5.1057 1.43914 -3.43752 -5.86041 1.24074 -3.44161 -6.10503 2.92798 -4.82643 -6.12475 3.2098 -4.5821 -6.07542 0 0 -3 0.245461 0.306753 -3.20821 0.792972 0.9516 -3.7415 1.30486 1.5818 -4.3253 1.35402 1.6418 -4.38058 1.84018 2.26113 -4.99708 2.38668 2.80612 -5.63295 2.42978 2.84761 -5.6855 2.99722 3.30545 -6.3699 3.40303 3.55447 -6.96453 3.94545 3.88133 -7.73845 4.44369 4.19257 -8.54769 4.53678 4.2504 -8.69761 4.7372 4.38279 -9.00309 
</DataArray>
</Points>
<Lines>
<DataArray type="Int32" Name="connectivity" NumberOfComponents="1" format="ascii" >
0 1 2 3 4 5 6 7 8 9 10 11 12 13 14 15 16 17 18 19 20 21 22 23 24 25 26 27 28 29 30 31 32 33 34 35 36 37 38 39 40 41 42 43 44 45 46 47 48 49 50 51 52 53 54 55 56 57 58 59 60 61 62 63 64 65 66 67 
</DataArray>
<DataArray type="Int32" Name="offsets" NumberOfComponents="1" format="ascii" >
40 45 49 52 54 68 
</DataArray>

</Lines>
</Piece>
</PolyData>
</VTKFile>
