<?xml version="1.0"?><VTKFile type="PolyData" version="0.1" byte_order="LittleEndian">
<PolyData>
<Piece NumberOfLines="15" NumberOfPoints="173">
<PointData Scalars=" PointData">
<DataArray type="Float32" Name="time" NumberOfComponents="1" format="ascii" >
0 0.138139 0.438321 0.739754 0.784104 1.08698 1.38767 1.69309 1.97104 2.27894 2.58816 2.62144 2.93213 3.24416 3.28963 3.60321 3.91816 3.96803 4.28457 4.53318 4.85221 5.05195 5.37328 5.67306 5.99717 6.32273 6.33077 6.65785 6.95996 7.2899 7.53792 7.87051 8.20464 8.33309 8.66936 8.95779 9.29699 9.59236 9.93456 10.2207 10.5659 10.9127 10.9364 11.2851 11.6354 11.6438 11.9958 12.3496 12.4273 12.7832 13.0688 13.4279 13.7615 14.1241 14.3925 14.7583 15 7.69963 8.38792 9.0833 9.78589 10.4959 11.2133 11.9385 12.6716 13.4126 14.1619 14.9196 15 8.41713 9.04993 9.68923 10.3352 10.9879 11.6475 12.3143 12.9882 13.6695 14.3584 15 9.08818 9.78047 10.4799 11.1866 11.9006 12.6223 13.3517 14.089 14.8344 15 9.73737 10.4376 11.1451 11.8599 12.5821 13.3121 14.0499 14.7956 15 10.4619 11.3144 12.1757 13.0459 13.9252 14.8139 15 11.207 11.8531 12.506 13.1656 13.8321 14.5057 15 11.9642 12.6766 13.3964 14.1236 14.8585 15 12.5957 13.2406 13.8921 14.5504 15 13.1759 13.7247 14.2792 14.8394 15 13.8712 14.4662 15 14.6083 15 7 7.14626 7.47622 7.80757 7.8392 8.1721 8.50642 8.5331 8.86897 9.12579 9.46422 9.80412 9.86741 10.2091 10.5263 10.8709 11.217 11.2475 11.5953 11.8869 12.2375 12.5897 12.6 12.9538 13.3093 13.3916 13.749 14.1026 14.4633 14.7585 15 14.8802 15 14 14.1805 14.4745 14.6865 14.9827 15 
</DataArray>

</PointData>
<CellData Scalars=" CellData">
<DataArray type="Float32" Name="radius" NumberOfComponents="1" format="ascii" >
0.115682 0.0550016 0.047712 0.0572864 0.0436387 0.0551136 0.0506498 0.0574949 0.0548052 0.0440759 0.0477735 0.0520734 0.122106 0.0609391 0.113779 
</DataArray>
<DataArray type="Float32" Name="subType" NumberOfComponents="1" format="ascii" >
1 2 2 2 2 2 2 2 2 2 2 2 4 2 4 
</DataArray>
<DataArray type="Float32" Name="creationTime" NumberOfComponents="1" format="ascii" >
0 7.69963 8.41713 9.08818 9.73737 10.4619 11.207 11.9642 12.5957 13.1759 13.8712 14.6083 7 14.8802 14 
</DataArray>

</CellData>
<Points>
<DataArray type="Float32" Name="Coordinates" NumberOfComponents="3" format="ascii" >
0 0 -3 0.281893 -0.298309 -3.2112 0.793396 -1.08166 -3.56436 1.31845 -1.85133 -3.92758 1.39673 -1.96341 -3.98102 1.74506 -2.71048 -4.54719 2.09512 -3.4473 -5.1057 2.52688 -4.17242 -5.64215 2.92798 -4.82643 -6.12475 3.36243 -5.52465 -6.69374 3.82855 -6.19642 -7.26946 3.87866 -6.26863 -7.33115 4.21611 -6.93376 -7.99729 4.44168 -7.53331 -8.76517 4.47493 -7.62117 -8.87611 4.4432 -8.23307 -9.66641 4.45301 -8.75273 -10.5207 4.4543 -8.83587 -10.655 4.49961 -9.34797 -11.5127 4.54617 -9.77911 -12.1639 4.66556 -10.3083 -13.004 4.74704 -10.5551 -13.5711 4.84709 -10.8802 -14.5115 4.97412 -11.1414 -15.3939 5.10426 -11.4052 -16.3496 5.16258 -11.5698 -17.3343 5.16386 -11.5739 -17.3585 5.15464 -11.6659 -18.3542 5.30476 -11.5968 -19.2589 5.48459 -11.5467 -20.2414 5.56656 -11.4842 -20.983 5.7406 -11.4169 -21.9654 5.88263 -11.3001 -22.9483 5.94669 -11.2683 -23.3248 6.07815 -11.1795 -24.3122 6.14366 -11.0723 -25.1569 6.1479 -10.9527 -26.1497 6.11349 -10.8745 -27.0124 6.12953 -10.7756 -28.0074 6.1237 -10.7223 -28.8382 6.06707 -10.5932 -29.8282 5.95431 -10.5069 -30.8181 5.94574 -10.5007 -30.8855 5.94154 -10.3462 -31.8735 5.92546 -10.1964 -32.8621 5.92506 -10.1929 -32.8857 5.87729 -10.1125 -33.8813 5.81164 -10.0537 -34.8774 5.80662 -10.0444 -35.0962 5.7938 -10.0011 -36.0952 5.86101 -9.9619 -36.8902 5.95841 -9.84408 -37.8785 6.05124 -9.73802 -38.7923 6.06163 -9.6669 -39.7897 6.06858 -9.69861 -40.5262 6.05221 -9.72643 -41.5257 6.11322 -9.69583 -42.1804 0.281893 -0.298309 -3.2112 0.945316 0.0316616 -2.53964 1.60413 0.342108 -1.85438 2.25258 0.635879 -1.15209 2.81082 0.864998 -0.354673 3.40739 0.99215 0.437758 4.00397 1.11764 1.23044 4.62884 1.19061 2.00774 5.25713 1.29483 2.77872 5.84544 1.38615 3.58217 6.42235 1.4525 4.39629 6.4853 1.45278 4.4809 1.39673 -1.96341 -3.98102 0.805293 -2.50456 -3.38323 0.256606 -3.05626 -2.75508 -0.360996 -3.66257 -2.25412 -1.07889 -4.16135 -1.76848 -1.80648 -4.71266 -1.36023 -2.53279 -5.26268 -0.94797 -3.25723 -5.80975 -0.528564 -4.03432 -6.37628 -0.254395 -4.87605 -6.88559 -0.0752459 -5.60067 -7.44475 0.0317896 2.09512 -3.4473 -5.1057 1.43914 -3.43752 -5.86041 0.866135 -3.43824 -6.67996 0.385917 -3.26795 -7.54042 0.0185667 -3.04855 -8.44426 -0.304764 -2.86184 -9.37194 -0.563371 -2.62249 -10.3078 -0.831744 -2.22955 -11.1873 -1.06618 -1.84836 -12.0816 -1.13131 -1.75422 -12.2703 2.92798 -4.82643 -6.12475 3.72658 -4.22482 -6.10786 4.50595 -3.59966 -6.06588 5.30138 -3.00991 -5.92627 6.12436 -2.46727 -5.75821 6.96449 -1.9385 -5.6374 7.87203 -1.58445 -5.41156 8.77867 -1.23738 -5.17165 9.02055 -1.12434 -5.1189 3.87866 -6.26863 -7.33115 4.54228 -5.73275 -7.85311 5.21064 -5.24734 -8.41675 5.73187 -4.68031 -9.05455 6.19283 -4.02014 -9.64758 6.58034 -3.3117 -10.2375 6.66095 -3.16133 -10.3566 4.47493 -7.62117 -8.87611 4.01393 -8.50247 -8.77215 3.47266 -9.34203 -8.72569 2.9291 -10.1802 -8.68018 2.29129 -10.9502 -8.69549 1.64212 -11.7094 -8.64904 1.16859 -12.2609 -8.63006 4.4543 -8.83587 -10.655 3.45748 -8.91373 -10.672 2.49242 -9.14884 -10.7876 1.5443 -9.34028 -11.0415 0.583664 -9.48667 -11.2776 0.400139 -9.52693 -11.3141 4.54617 -9.77911 -12.1639 5.47179 -9.45349 -12.3568 6.39976 -9.12979 -12.5414 7.33674 -8.82701 -12.7157 7.95327 -8.56746 -12.8199 4.74704 -10.5551 -13.5711 5.43914 -11.175 -13.2014 6.15701 -11.7778 -12.8531 6.7691 -12.4551 -12.4449 6.94824 -12.6349 -12.316 4.97412 -11.1414 -15.3939 5.96254 -11.2134 -15.5275 6.82957 -11.4066 -15.5442 5.16386 -11.5739 -17.3585 5.25298 -12.0649 -17.1386 0 0 -3 0.245461 0.306753 -3.20821 0.792972 0.9516 -3.7415 1.30486 1.5818 -4.3253 1.35402 1.6418 -4.38058 1.84018 2.26113 -4.99708 2.38668 2.80612 -5.63295 2.42978 2.84761 -5.6855 2.99722 3.30545 -6.3699 3.40303 3.55447 -6.96453 3.94545 3.88133 -7.73845 4.44369 4.19257 -8.54769 4.53678 4.2504 -8.69761 4.98819 4.58805 -9.52358 5.31031 4.88787 -10.3368 5.57514 5.14116 -11.2673 5.83596 5.41198 -12.1939 5.85976 5.43473 -12.2755 6.2422 5.76093 -13.14 6.55848 6.02046 -13.868 6.82185 6.26103 -14.8023 6.94685 6.49423 -15.7666 6.95093 6.50125 -15.7946 7.06255 6.84466 -16.7271 7.15859 7.14943 -17.6747 7.18962 7.21277 -17.8946 7.32315 7.4837 -18.8479 7.45489 7.75187 -19.7861 7.54868 7.91223 -20.7687 7.62114 8.04135 -21.57 7.67454 8.13194 -22.2261 0.245461 0.306753 -3.20821 0.387676 0.291147 -3.12259 0 0 -3 0.342618 0.411766 -3.30387 0.857912 1.10256 -3.8111 1.19734 1.57837 -4.22902 1.68905 2.19086 -4.84795 1.71774 2.22592 -4.88461 
</DataArray>
</Points>
<Lines>
<DataArray type="Int32" Name="connectivity" NumberOfComponents="1" format="ascii" >
0 1 2 3 4 5 6 7 8 9 10 11 12 13 14 15 16 17 18 19 20 21 22 23 24 25 26 27 28 29 30 31 32 33 34 35 36 37 38 39 40 41 42 43 44 45 46 47 48 49 50 51 52 53 54 55 56 57 58 59 60 61 62 63 64 65 66 67 68 69 70 71 72 73 74 75 76 77 78 79 80 81 82 83 84 85 86 87 88 89 90 91 92 93 94 95 96 97 98 99 100 101 102 103 104 105 106 107 108 109 110 111 112 113 114 115 116 117 118 119 120 121 122 123 124 125 126 127 128 129 130 131 132 133 134 135 136 137 138 139 140 141 142 143 144 145 146 147 148 149 150 151 152 153 154 155 156 157 158 159 160 161 162 163 164 165 166 167 168 169 170 171 172 
</DataArray>
<DataArray type="Int32" Name="offsets" NumberOfComponents="1" format="ascii" >
57 69 80 90 99 106 113 119 124 129 132 134 165 167 173 
</DataArray>

</Lines>
</Piece>
</PolyData>
</VTKFile>
