<?xml version="1.0"?><VTKFile type="PolyData" version="0.1" byte_order="LittleEndian">
<PolyData>
<Piece NumberOfLines="8" NumberOfPoints="130">
<PointData Scalars=" PointData">
<DataArray type="Float32" Name="time" NumberOfComponents="1" format="ascii" >
0 0.140992 0.28228 0.423865 0.565748 0.70793 0.850412 0.993197 1.13628 1.27968 1.42337 1.56738 1.71169 1.85631 2.00125 2.14649 2.29205 2.43793 2.58412 2.73062 2.87745 3.0246 3.17207 3.31986 3.46798 3.61642 3.7652 3.9143 4.06373 4.21349 4.36359 4.51402 4.66479 4.81589 4.96734 5.11913 5.27126 5.42373 5.57655 5.72972 5.88323 6.0371 6.19131 6.34588 6.50081 6.65609 6.81174 6.96774 7.1241 7.28083 7.43792 7.59538 7.75321 7.91141 8.06998 8.22892 8.38824 8.54794 8.70802 8.86848 9.02932 9.19054 9.35216 9.51416 9.67655 9.83933 10 6.59394 6.92832 7.26481 7.60343 7.94422 8.2872 8.6324 8.97985 9.32958 9.68162 10 7.21809 7.55247 7.88896 8.22759 8.56838 8.91136 9.25656 9.60401 9.95374 10 7.84808 8.18246 8.51895 8.85758 9.19837 9.54135 9.88655 10 8.48402 8.8184 9.15489 9.49351 9.8343 10 9.12601 9.46039 9.79688 10 9.77417 10 7 7.14099 7.28228 7.42387 7.56575 7.70793 7.85041 7.9932 8.13628 8.27968 8.42337 8.56738 8.71169 8.85631 9.00125 9.14649 9.29205 9.43793 9.58412 9.73062 9.87745 10 
</DataArray>

</PointData>
<CellData Scalars=" CellData">
<DataArray type="Float32" Name="radius" NumberOfComponents="1" format="ascii" >
0.13 0.05 0.05 0.05 0.05 0.05 0.05 0.13 
</DataArray>
<DataArray type="Float32" Name="subType" NumberOfComponents="1" format="ascii" >
1 2 2 2 2 2 2 4 
</DataArray>
<DataArray type="Float32" Name="creationTime" NumberOfComponents="1" format="ascii" >
0 6.59394 7.21809 7.84808 8.48402 9.12601 9.77417 7 
</DataArray>

</CellData>
<Points>
<DataArray type="Float32" Name="Coordinates" NumberOfComponents="3" format="ascii" >
0 0 -1.2 0.372356 0.221764 -1.44934 0.736594 0.452865 -1.70217 1.10361 0.674176 -1.9597 1.46118 0.90565 -2.22154 1.78452 1.16765 -2.49869 2.09955 1.43245 -2.78265 2.41298 1.69557 -3.06994 2.68006 1.96481 -3.39579 2.91448 2.17664 -3.78331 3.12607 2.37242 -4.19185 3.28576 2.584 -4.61579 3.43412 2.7922 -5.04549 3.57292 3.01077 -5.47323 3.71495 3.1876 -5.91883 3.85464 3.34628 -6.37194 4.02364 3.52923 -6.80549 4.24071 3.7133 -7.21659 4.44064 3.93145 -7.61962 4.59857 4.13954 -8.04595 4.75904 4.34638 -8.47194 4.90871 4.51344 -8.91881 5.06189 4.68087 -9.36435 5.21307 4.84765 -9.81081 5.32527 5.04207 -10.2576 5.42764 5.22664 -10.7109 5.46365 5.39061 -11.1818 5.51121 5.54932 -11.6536 5.55188 5.70652 -12.1265 5.61401 5.87287 -12.5939 5.66154 6.02934 -13.0664 5.70348 6.15382 -13.5488 5.75051 6.27705 -14.0311 5.80211 6.36354 -14.5209 5.86889 6.43083 -15.0118 5.93037 6.48387 -15.5052 5.9841 6.53891 -15.9992 6.00519 6.53756 -16.4988 5.97859 6.50142 -16.9967 5.9918 6.43909 -17.4927 6.02202 6.34853 -17.9835 6.0529 6.26518 -18.4755 6.08065 6.18345 -18.968 6.13287 6.08787 -19.456 6.17818 6.01856 -19.9491 6.22695 5.94774 -20.4416 6.22931 5.92044 -20.9409 6.23225 5.89333 -21.4401 6.25719 5.88452 -21.9394 6.25663 5.87761 -22.4394 6.23918 5.84278 -22.9379 6.25451 5.81628 -23.4369 6.24641 5.82555 -23.9368 6.17086 5.84489 -24.4307 6.09006 5.90019 -24.921 5.9607 5.96927 -25.399 5.82423 6.03824 -25.875 5.73407 6.15454 -26.3529 5.64777 6.2912 -26.8261 5.57313 6.39157 -27.3102 5.51799 6.49211 -27.7968 5.45428 6.5971 -28.2815 5.3608 6.66995 -28.7673 5.27258 6.75605 -29.2518 5.17197 6.85487 -29.7315 5.0751 6.94265 -30.2141 4.99513 7.03228 -30.6916 1.46118 0.90565 -2.22154 1.80085 0.978824 -1.862 2.13757 1.05317 -1.49993 2.4723 1.105 -1.13214 2.80247 1.16094 -0.760846 3.11714 1.26159 -0.385538 3.4327 1.36021 -0.0104478 3.76335 1.44027 0.355973 4.09 1.5245 0.725025 4.42336 1.65796 1.07296 4.77089 1.80738 1.31552 2.68006 1.96481 -3.39579 2.59014 2.44058 -3.27105 2.49904 2.91768 -3.15241 2.40805 3.39476 -3.03361 2.33081 3.87505 -2.91805 2.24604 4.34186 -2.76025 2.15098 4.80742 -2.60463 2.1281 5.29407 -2.49216 2.09548 5.77836 -2.37215 2.09 5.84215 -2.35655 3.43412 2.7922 -5.04549 3.63847 3.18215 -4.80847 3.81694 3.58941 -4.57979 3.99567 3.99658 -4.35118 4.11655 4.45155 -4.18267 4.24243 4.89786 -3.9957 4.45909 5.28357 -3.76271 4.5288 5.4126 -3.69014 4.02364 3.52923 -6.80549 4.21404 3.90833 -6.54087 4.36023 4.2889 -6.25139 4.53731 4.67173 -5.9829 4.70323 5.05835 -5.71273 4.78333 5.24522 -5.58156 4.75904 4.34638 -8.47194 4.87169 4.7865 -8.26311 4.98479 5.21238 -8.02683 5.06383 5.46469 -7.88443 5.32527 5.04207 -10.2576 5.24741 5.35426 -10.154 0 0 -1.2 -0.434318 0.0118778 -1.44744 -0.864504 0.0187902 -1.70218 -1.29464 0.0224112 -1.95707 -1.71922 0.00462424 -2.22053 -2.11835 0.00399158 -2.52169 -2.51005 0.0152265 -2.83225 -2.89982 0.0440631 -3.14409 -3.29544 0.0606594 -3.4494 -3.6854 0.0837402 -3.76148 -4.07543 0.106045 -4.07355 -4.45993 0.0992123 -4.39309 -4.84767 0.0956408 -4.70876 -5.27179 0.102404 -4.97347 -5.69132 0.112912 -5.24529 -6.09479 0.127716 -5.54024 -6.49374 0.114036 -5.84133 -6.88141 0.0682508 -6.15376 -7.26533 0.0274596 -6.47147 -7.61381 -0.0673612 -6.81726 -7.94997 -0.183629 -7.16866 -8.2225 -0.25741 -7.47484 
</DataArray>
</Points>
<Lines>
<DataArray type="Int32" Name="connectivity" NumberOfComponents="1" format="ascii" >
0 1 2 3 4 5 6 7 8 9 10 11 12 13 14 15 16 17 18 19 20 21 22 23 24 25 26 27 28 29 30 31 32 33 34 35 36 37 38 39 40 41 42 43 44 45 46 47 48 49 50 51 52 53 54 55 56 57 58 59 60 61 62 63 64 65 66 67 68 69 70 71 72 73 74 75 76 77 78 79 80 81 82 83 84 85 86 87 88 89 90 91 92 93 94 95 96 97 98 99 100 101 102 103 104 105 106 107 108 109 110 111 112 113 114 115 116 117 118 119 120 121 122 123 124 125 126 127 128 129 
</DataArray>
<DataArray type="Int32" Name="offsets" NumberOfComponents="1" format="ascii" >
67 78 88 96 102 106 108 130 
</DataArray>

</Lines>
</Piece>
</PolyData>
</VTKFile>
