<?xml version="1.0"?><VTKFile type="PolyData" version="0.1" byte_order="LittleEndian">
<PolyData>
<Piece NumberOfLines="1" NumberOfPoints="26">
<PointData Scalars=" PointData">
<DataArray type="Float32" Name="time" NumberOfComponents="1" format="ascii" >
0 0.13736 0.264429 0.374476 0.496731 0.619433 0.73473 0.867245 0.975764 1.0954 1.22151 1.36267 1.4913 1.61142 1.7189 1.82712 1.94066 2.04811 2.17971 2.32233 2.47027 2.57903 2.70241 2.85094 2.98507 3 
</DataArray>

</PointData>
<CellData Scalars=" CellData">
<DataArray type="Float32" Name="radius" NumberOfComponents="1" format="ascii" >
0.147243 
</DataArray>
<DataArray type="Float32" Name="subType" NumberOfComponents="1" format="ascii" >
1 
</DataArray>
<DataArray type="Float32" Name="creationTime" NumberOfComponents="1" format="ascii" >
0 
</DataArray>

</CellData>
<Points>
<DataArray type="Float32" Name="Coordinates" NumberOfComponents="3" format="ascii" >
0 0 -3 0.494581 0.0317302 -3.26217 0.924678 0.0982239 -3.54215 1.29639 0.176025 -3.77841 1.6992 0.240815 -4.06029 2.05915 0.330958 -4.39042 2.39098 0.419244 -4.70508 2.78317 0.474596 -5.06349 3.10016 0.517932 -5.36049 3.39788 0.555294 -5.73557 3.66084 0.566629 -6.16683 3.94955 0.619447 -6.64874 4.2441 0.672059 -7.06545 4.47412 0.73917 -7.4791 4.67185 0.78432 -7.85472 4.86095 0.825856 -8.23762 5.0642 0.856824 -8.63707 5.27005 0.839971 -9.00781 5.52559 0.819185 -9.45875 5.78999 0.789228 -9.95241 6.01983 0.792541 -10.4853 6.18059 0.808441 -10.8791 6.36212 0.825402 -11.3253 6.57697 0.856718 -11.8618 6.7748 0.883023 -12.3436 6.79629 0.885074 -12.3974 
</DataArray>
</Points>
<Lines>
<DataArray type="Int32" Name="connectivity" NumberOfComponents="1" format="ascii" >
0 1 2 3 4 5 6 7 8 9 10 11 12 13 14 15 16 17 18 19 20 21 22 23 24 25 
</DataArray>
<DataArray type="Int32" Name="offsets" NumberOfComponents="1" format="ascii" >
26 
</DataArray>

</Lines>
</Piece>
</PolyData>
</VTKFile>
