<?xml version="1.0"?><VTKFile type="PolyData" version="0.1" byte_order="LittleEndian">
<PolyData>
<Piece NumberOfLines="1" NumberOfPoints="22">
<PointData Scalars=" PointData">
<DataArray type="Float32" Name="time" NumberOfComponents="1" format="ascii" >
0 0.140992 0.28228 0.423865 0.565748 0.70793 0.850412 0.993197 1.13628 1.27968 1.42337 1.56738 1.71169 1.85631 2.00125 2.14649 2.29205 2.43793 2.58412 2.73062 2.87745 3 
</DataArray>

</PointData>
<CellData Scalars=" CellData">
<DataArray type="Float32" Name="radius" NumberOfComponents="1" format="ascii" >
0.13 
</DataArray>
<DataArray type="Float32" Name="subType" NumberOfComponents="1" format="ascii" >
1 
</DataArray>
<DataArray type="Float32" Name="creationTime" NumberOfComponents="1" format="ascii" >
0 
</DataArray>

</CellData>
<Points>
<DataArray type="Float32" Name="Coordinates" NumberOfComponents="3" format="ascii" >
0 0 -1.2 0.372356 0.221764 -1.44934 0.736594 0.452865 -1.70217 1.10361 0.674176 -1.9597 1.46118 0.90565 -2.22154 1.78452 1.16765 -2.49869 2.09955 1.43245 -2.78265 2.41298 1.69557 -3.06994 2.68006 1.96481 -3.39579 2.91448 2.17664 -3.78331 3.12607 2.37242 -4.19185 3.28576 2.584 -4.61579 3.43412 2.7922 -5.04549 3.57292 3.01077 -5.47323 3.71495 3.1876 -5.91883 3.85464 3.34628 -6.37194 4.02364 3.52923 -6.80549 4.24071 3.7133 -7.21659 4.44064 3.93145 -7.61962 4.59857 4.13954 -8.04595 4.75904 4.34638 -8.47194 4.88648 4.46682 -8.84972 
</DataArray>
</Points>
<Lines>
<DataArray type="Int32" Name="connectivity" NumberOfComponents="1" format="ascii" >
0 1 2 3 4 5 6 7 8 9 10 11 12 13 14 15 16 17 18 19 20 21 
</DataArray>
<DataArray type="Int32" Name="offsets" NumberOfComponents="1" format="ascii" >
22 
</DataArray>

</Lines>
</Piece>
</PolyData>
</VTKFile>
