<?xml version="1.0"?><VTKFile type="PolyData" version="0.1" byte_order="LittleEndian">
<PolyData>
<Piece NumberOfLines="19" NumberOfPoints="478">
<PointData Scalars=" PointData">
<DataArray type="Float32" Name="time" NumberOfComponents="1" format="ascii" >
0 0.11387 0.228208 0.343019 0.359292 0.474648 0.590486 0.607863 0.724258 0.841144 0.958524 1.0157 1.13382 1.25245 1.34771 1.45855 1.57857 1.69912 1.73985 1.8611 1.98289 2.1052 2.22806 2.35147 2.47543 2.59994 2.61495 2.74009 2.8658 2.99208 3 0 0.113783 0.22786 0.342233 0.456902 0.571871 0.687139 0.80271 0.918584 1.03476 1.07131 1.1879 1.30479 1.42199 1.52824 1.64604 1.76415 1.88258 2.00133 2.1204 2.22169 2.34136 2.46135 2.58167 2.70231 2.82329 2.9446 3 0 0.113758 0.227761 0.342009 0.456504 0.571247 0.665016 0.780211 0.895656 1.01135 1.1273 1.13022 1.24643 1.36289 1.47962 1.5966 1.71383 1.83133 1.92731 2.04529 2.16352 2.28202 2.40079 2.51982 2.59096 2.71042 2.83015 2.95015 3 2.03986 2.69094 3 2.51733 3 0 0.113833 0.22806 0.342685 0.457709 0.573137 0.68897 0.805211 0.921864 0.970695 1.08794 1.2056 1.32368 1.42711 1.54599 1.5796 1.69903 1.8189 1.9392 2.05994 2.18113 2.30277 2.40597 2.52844 2.65137 2.77475 2.8986 3 0 0.113797 0.17171 0.285994 0.400604 0.515541 0.630806 0.746403 0.862333 0.951237 1.06776 1.18462 1.30182 1.41936 1.53725 1.65548 1.77406 1.87236 1.99159 2.11116 2.2311 2.35139 2.44337 2.5643 2.68559 2.80725 2.92928 2.9943 3 0 0.113794 0.227904 0.342332 0.357963 0.472754 0.587868 0.703304 0.819066 0.935156 1.01854 1.13519 1.25218 1.3695 1.38321 1.50091 1.61895 1.73732 1.85604 1.97243 2.09183 2.21158 2.33168 2.37831 2.49889 2.61984 2.74114 2.8628 2.98482 3 0 0.113844 0.228104 0.342785 0.457888 0.573418 0.689376 0.805768 0.922595 0.971011 1.08846 1.20635 1.31402 1.43277 1.55197 1.67163 1.79175 1.91233 2.03338 2.13952 2.26146 2.38387 2.50677 2.63016 2.71593 2.84015 2.96486 3 0 0.114037 0.228882 0.283111 0.399165 0.516057 0.612536 0.730983 0.850303 0.970509 0.999397 1.12072 1.24295 1.36612 1.49023 1.6153 1.72684 1.85376 1.98168 2.11061 2.24058 2.3716 2.4418 2.46383 2.59667 2.73062 2.86568 3 0 0.113748 0.22772 0.341917 0.45634 0.57099 0.685867 0.800973 0.916308 1.03187 1.06057 1.17643 1.29251 1.40883 1.52539 1.52546 1.64225 1.75928 1.80232 1.91967 2.03726 2.15509 2.27316 2.39147 2.51002 2.52216 2.64098 2.76004 2.87936 2.9775 3 0 0.0313291 0.145089 0.259008 0.373017 0.487256 0.601657 0.716218 0.819411 0.93428 1.04931 1.16451 1.23795 1.35342 1.46904 1.58483 1.70079 1.81691 1.9332 2.04966 2.1432 2.25995 2.37688 2.49397 2.61123 2.72866 2.84626 2.96404 2.99669 3 0 0.11391 0.228371 0.343389 0.458968 0.575115 0.691835 0.809133 0.927016 1.04549 1.16456 1.28423 1.40451 1.5254 1.64692 1.76906 1.89184 1.92668 2.05028 2.17453 2.20404 2.3291 2.45483 2.58123 2.7083 2.83606 2.84217 2.97066 3 0 0.113832 0.228057 0.342677 0.457696 0.573116 0.68894 0.805171 0.921811 1.03886 1.09831 1.17839 1.29636 1.41474 1.53356 1.6528 1.77247 1.89258 2.01312 2.1341 2.15238 2.27387 2.39582 2.51821 2.64106 2.76437 2.88813 2.90466 3 0 0.0260343 0.139938 0.25421 0.368854 0.48387 0.599263 0.616236 0.732063 0.848271 0.964863 0.992597 1.10967 1.22713 1.34498 1.38604 1.50443 1.62321 1.74239 1.86198 1.98197 2.02673 2.08742 2.20819 2.32937 2.45096 2.57297 2.69541 2.78513 2.90831 3 0 0.113735 0.227669 0.341803 0.456136 0.570669 0.674853 0.789771 0.904893 0.972243 1.08769 1.20334 1.31919 1.43525 1.47384 1.59017 1.70672 1.82347 1.82881 1.94578 2.06297 2.08512 2.20255 2.32019 2.43804 2.55611 2.67439 2.73491 2.85352 2.90572 3 0 0.113785 0.227868 0.342252 0.456936 0.571924 0.687217 0.748538 0.8643 0.980371 1.09675 1.21345 1.33045 1.44778 1.56542 1.63807 1.75623 1.87471 1.99351 2.11263 2.23209 2.35187 2.47198 2.59243 2.68767 2.80871 2.93009 3 0 0.113733 0.22766 0.341781 0.433675 0.548148 0.662817 0.777684 0.892747 1.00801 1.12347 1.16387 1.2796 1.39554 1.51167 1.628 1.74454 1.86128 1.97822 2.00505 2.12224 2.23965 2.24823 2.36586 2.48369 2.60173 2.71997 2.83843 2.86063 2.97934 3 2.7957 3 
</DataArray>

</PointData>
<CellData Scalars=" CellData">
<DataArray type="Float32" Name="radius" NumberOfComponents="1" format="ascii" >
0.05 0.05 0.05 0.03 0.03 0.05 0.05 0.05 0.05 0.05 0.05 0.05 0.05 0.05 0.05 0.05 0.05 0.05 0.03 
</DataArray>
<DataArray type="Float32" Name="subType" NumberOfComponents="1" format="ascii" >
1 4 4 2 2 4 4 4 4 4 4 4 4 4 4 4 4 4 2 
</DataArray>
<DataArray type="Float32" Name="creationTime" NumberOfComponents="1" format="ascii" >
0 0 0 2.03986 2.51733 0 0 0 0 0 0 0 0 0 0 0 0 0 2.7957 
</DataArray>

</CellData>
<Points>
<DataArray type="Float32" Name="Coordinates" NumberOfComponents="3" format="ascii" >
0 0 -3 0.045693 0.189515 -3.15651 0.0639933 0.369256 -3.32931 0.051974 0.526 -3.5237 0.0518527 0.547997 -3.55137 -0.0405238 0.690181 -3.73508 -0.13241 0.846322 -3.90735 -0.146541 0.869724 -3.93289 -0.2359 1.03816 -4.09458 -0.325481 1.20728 -4.25544 -0.434288 1.38672 -4.39132 -0.469958 1.50022 -4.41539 -0.572283 1.72115 -4.47214 -0.668429 1.9463 -4.52277 -0.745628 2.12665 -4.5617 -0.830366 2.33565 -4.61533 -0.994472 2.471 -4.74668 -1.2105 2.4317 -4.86622 -1.27376 2.427 -4.92163 -1.47194 2.43219 -5.07394 -1.64277 2.43066 -5.25646 -1.82249 2.42404 -5.43012 -2.02331 2.41879 -5.57893 -2.20898 2.40057 -5.74534 -2.3943 2.35073 -5.90557 -2.52296 2.32079 -6.11782 -2.53913 2.31638 -6.14277 -2.61937 2.3574 -6.37597 -2.70652 2.40433 -6.60554 -2.75897 2.51821 -6.82183 -2.76222 2.52539 -6.83534 0 0 -3 -0.159694 0.065021 -3.18102 -0.218443 0.161582 -3.40402 -0.256187 0.188111 -3.64972 -0.35845 0.17527 -3.87749 -0.460957 0.163164 -4.10518 -0.604159 0.189353 -4.30843 -0.750535 0.215686 -4.50937 -0.873174 0.301435 -4.70964 -1.01971 0.397129 -4.88816 -1.0658 0.429386 -4.94294 -1.1855 0.477247 -5.15714 -1.28699 0.473707 -5.38558 -1.36916 0.424072 -5.61642 -1.3865 0.406718 -5.84115 -1.38083 0.352963 -6.08524 -1.31336 0.279729 -6.31455 -1.23659 0.156868 -6.5183 -1.15722 0.038435 -6.72366 -1.08212 -0.0829939 -6.92888 -1.02307 -0.20005 -7.09568 -0.993592 -0.395485 -7.24876 -0.967258 -0.591891 -7.40118 -0.89695 -0.781119 -7.54866 -1.06151 -0.959463 -7.60877 -1.22653 -1.13838 -7.66585 -1.40776 -1.30852 -7.69248 -1.48789 -1.38007 -7.73047 0 0 -3 -0.112056 -0.218288 -3.04789 -0.27487 -0.406275 -3.07344 -0.478663 -0.524676 -3.1568 -0.691934 -0.637937 -3.22151 -0.879161 -0.770525 -3.32084 -1.04589 -0.87652 -3.37127 -1.15811 -1.04745 -3.51511 -1.26378 -1.24253 -3.63033 -1.39063 -1.4515 -3.6827 -1.55386 -1.61459 -3.77893 -1.55778 -1.6188 -3.78142 -1.73273 -1.78356 -3.85033 -1.91222 -1.93559 -3.935 -2.09087 -2.07667 -4.03834 -2.25651 -2.21714 -4.16216 -2.43045 -2.34176 -4.29146 -2.57669 -2.44014 -4.46875 -2.66155 -2.48677 -4.6481 -2.75605 -2.52237 -4.87679 -2.82778 -2.54324 -5.11537 -2.78996 -2.49998 -5.35868 -2.73284 -2.42269 -5.58947 -2.69107 -2.33929 -5.82142 -2.66716 -2.28763 -5.95928 -2.61356 -2.19208 -6.18399 -2.54963 -2.1103 -6.41143 -2.47852 -2.04394 -6.64173 -2.44346 -1.99593 -6.7267 -1.04589 -0.87652 -3.37127 -0.988557 -0.968263 -3.59665 -0.958462 -1.00695 -3.69697 -1.55778 -1.6188 -3.78142 -1.59092 -1.48344 -3.89866 0 0 -3 -0.11159 -0.223499 -3.00978 -0.177968 -0.414075 -3.15734 -0.257668 -0.579003 -3.32748 -0.351 -0.748644 -3.48563 -0.528017 -0.88781 -3.59425 -0.747708 -0.975768 -3.67486 -0.872919 -1.12435 -3.83217 -1.02533 -1.26482 -3.97195 -1.06324 -1.34402 -4.02841 -1.22033 -1.53848 -4.03133 -1.4216 -1.68675 -4.03384 -1.63527 -1.80903 -3.99034 -1.79917 -1.95019 -4.01944 -1.96667 -2.10876 -4.11588 -2.01024 -2.15598 -4.14491 -2.15619 -2.33134 -4.24712 -2.28581 -2.51086 -4.36319 -2.4139 -2.69071 -4.48044 -2.54639 -2.89074 -4.55069 -2.65562 -3.0842 -4.66532 -2.77533 -3.27285 -4.77749 -2.85608 -3.44682 -4.86638 -3.00103 -3.58679 -5.01436 -3.10518 -3.74644 -5.17611 -3.20479 -3.90297 -5.34367 -3.28939 -4.05405 -5.524 -3.35841 -4.17732 -5.67113 0 0 -3 -0.200955 -0.111866 -3.098 -0.297487 -0.179199 -3.1456 -0.494943 -0.293418 -3.2479 -0.698342 -0.416017 -3.32599 -0.900387 -0.541039 -3.40376 -1.04532 -0.712464 -3.51379 -1.14428 -0.904261 -3.63997 -1.25131 -1.05753 -3.80596 -1.32275 -1.16826 -3.94455 -1.43396 -1.19899 -4.16633 -1.50955 -1.23628 -4.40169 -1.5724 -1.23117 -4.64361 -1.68865 -1.19354 -4.86172 -1.77574 -1.18594 -5.09593 -1.85734 -1.17148 -5.3318 -1.93251 -1.14724 -5.569 -1.99649 -1.13707 -5.76527 -2.05407 -1.02052 -5.97881 -2.12546 -0.81395 -6.10019 -2.19013 -0.610448 -6.23021 -2.23987 -0.390767 -6.33868 -2.27199 -0.224902 -6.42705 -2.3256 0.00904042 -6.49703 -2.37742 0.243379 -6.56703 -2.49688 0.454359 -6.62798 -2.61341 0.663114 -6.70108 -2.6768 0.774342 -6.73674 -2.68232 0.783943 -6.74034 0 0 -3 -0.0816394 0.233787 -2.96567 -0.154081 0.471494 -2.93832 -0.230991 0.700896 -2.8754 -0.240304 0.733123 -2.86929 -0.309616 0.969338 -2.82572 -0.299024 1.21842 -2.80719 -0.280388 1.46562 -2.83956 -0.232944 1.69924 -2.91487 -0.191112 1.93287 -2.9934 -0.184922 2.09375 -3.07191 -0.166309 2.33738 -3.12479 -0.154356 2.52442 -3.29025 -0.161481 2.65478 -3.50345 -0.160743 2.67127 -3.5275 -0.128947 2.87853 -3.66363 -0.129602 3.08121 -3.80999 -0.200346 3.22205 -4.00405 -0.24053 3.39416 -4.18086 -0.28233 3.5331 -4.37753 -0.255723 3.59981 -4.61699 -0.29954 3.63881 -4.86001 -0.278323 3.74117 -5.08711 -0.283226 3.77764 -5.17671 -0.274287 3.883 -5.40325 -0.239432 3.94328 -5.64336 -0.162596 3.99067 -5.87649 -0.0744435 4.03832 -6.10553 0.0170355 4.08469 -6.33352 0.0303882 4.0871 -6.36145 0 0 -3 -0.23411 0.0392493 -3.07843 -0.462575 0.0869949 -3.16801 -0.690407 0.139253 -3.25668 -0.893551 0.195755 -3.39099 -1.04191 0.274027 -3.57636 -1.17905 0.268638 -3.78532 -1.27843 0.27018 -4.01471 -1.32721 0.297703 -4.25836 -1.35061 0.281834 -4.35775 -1.38712 0.234801 -4.60056 -1.35437 0.21019 -4.84718 -1.30434 0.202168 -5.06895 -1.28624 0.262049 -5.311 -1.28724 0.338038 -5.54917 -1.28754 0.431385 -5.78109 -1.29232 0.519767 -6.0149 -1.27447 0.546273 -6.26285 -1.1867 0.543155 -6.49691 -1.12918 0.570615 -6.7058 -1.04612 0.550641 -6.94075 -0.978744 0.537613 -7.18115 -0.910941 0.521967 -7.42127 -0.938484 0.48174 -7.66647 -0.941998 0.442215 -7.83508 -0.964147 0.38371 -8.07713 -1.01107 0.346527 -8.31986 -1.02386 0.336943 -8.38827 0 0 -3 -0.245824 -0.00597427 -2.95489 -0.488059 -0.0527674 -2.91448 -0.602782 -0.0770599 -2.90826 -0.835255 -0.144716 -2.97055 -1.04203 -0.249232 -3.06446 -1.20673 -0.343762 -3.14165 -1.41127 -0.457989 -3.22892 -1.63465 -0.532381 -3.31297 -1.84985 -0.555539 -3.43808 -1.90103 -0.559283 -3.46881 -2.11599 -0.574578 -3.59552 -2.33801 -0.581059 -3.71026 -2.55087 -0.59065 -3.84101 -2.77529 -0.574575 -3.95 -2.94855 -0.498277 -4.11328 -3.09191 -0.425589 -4.26546 -3.27079 -0.356165 -4.42572 -3.47552 -0.216251 -4.45755 -3.68002 -0.0760759 -4.4896 -3.87543 0.0760096 -4.52405 -4.07333 0.180881 -4.63512 -4.17812 0.233922 -4.69778 -4.21113 0.249915 -4.71751 -4.40886 0.344075 -4.83807 -4.59962 0.460259 -4.95039 -4.71717 0.663107 -5.03718 -4.82938 0.859021 -5.13629 0 0 -3 -0.140335 -0.193944 -3.07205 -0.253188 -0.379015 -3.1966 -0.466234 -0.501884 -3.24149 -0.648431 -0.672926 -3.2345 -0.841774 -0.825868 -3.19294 -1.03844 -0.979931 -3.18363 -1.21688 -1.15207 -3.21571 -1.39824 -1.32343 -3.23131 -1.56357 -1.47374 -3.34344 -1.60244 -1.51025 -3.37507 -1.73601 -1.64834 -3.53504 -1.84654 -1.78923 -3.7095 -1.85312 -1.95823 -3.89361 -1.83058 -2.10468 -4.09496 -1.83057 -2.10477 -4.09509 -1.85528 -2.24098 -4.30326 -1.88244 -2.38787 -4.50372 -1.88485 -2.44389 -4.57645 -1.85539 -2.5669 -4.79209 -1.74975 -2.65659 -5.00017 -1.62234 -2.81665 -5.14385 -1.45919 -2.91896 -5.30327 -1.32474 -3.00913 -5.49378 -1.23997 -3.03216 -5.72784 -1.2297 -3.03416 -5.75116 -1.03153 -3.12142 -5.87611 -0.898396 -3.13445 -6.08731 -0.809872 -3.14725 -6.32076 -0.732407 -3.15387 -6.51074 -0.718198 -3.14791 -6.55514 0 0 -3 0.0479525 0.0472352 -3.01477 0.190709 0.244513 -2.95818 0.344785 0.435458 -2.91022 0.536713 0.566276 -2.81816 0.741694 0.705391 -2.78455 0.90724 0.891634 -2.80474 1.06362 1.08116 -2.85083 1.2188 1.24385 -2.84556 1.32228 1.46881 -2.87995 1.4445 1.65552 -2.99266 1.64282 1.7703 -3.09265 1.75905 1.86715 -3.14223 1.92417 2.05168 -3.17664 2.11606 2.19961 -3.23826 2.33915 2.31243 -3.23857 2.52866 2.45842 -3.16595 2.74285 2.57695 -3.11526 2.94704 2.71949 -3.09304 3.1356 2.88099 -3.06366 3.2884 3.00801 -3.03653 3.473 3.17526 -3.01531 3.6709 3.32802 -3.0155 3.90182 3.41563 -3.05422 4.10621 3.47697 -3.18446 4.31957 3.44471 -3.3107 4.52449 3.36886 -3.43217 4.7385 3.29362 -3.53724 4.80025 3.28077 -3.56583 4.80633 3.27904 -3.56888 0 0 -3 0.223904 0.102835 -2.95767 0.456119 0.194842 -2.94714 0.681571 0.302851 -2.94942 0.911419 0.391697 -2.99157 1.14118 0.480987 -3.03325 1.3709 0.56991 -3.07595 1.60014 0.650123 -3.13523 1.74228 0.792727 -3.28342 1.82925 0.952591 -3.45482 1.92589 1.12753 -3.60502 2.05868 1.23117 -3.78974 2.19196 1.31161 -3.98537 2.37442 1.38915 -4.13766 2.53174 1.47753 -4.31069 2.66669 1.58161 -4.4936 2.79897 1.67651 -4.68333 2.83605 1.70712 -4.73517 2.96539 1.80479 -4.92552 3.09562 1.89761 -5.11767 3.12354 1.91826 -5.16562 3.2966 1.99126 -5.3306 3.47613 1.99227 -5.50458 3.61475 2.01262 -5.71163 3.75165 2.03459 -5.91966 3.85461 2.01021 -6.14617 3.85888 2.00886 -6.15721 3.95001 1.97876 -6.38805 3.97569 1.97149 -6.4383 0 0 -3 -0.198566 0.133123 -3.07314 -0.393709 0.28716 -3.09945 -0.624491 0.375517 -3.1373 -0.840594 0.423676 -3.2534 -1.06972 0.514779 -3.29464 -1.2998 0.602192 -3.33849 -1.54026 0.663172 -3.36948 -1.77256 0.753979 -3.35241 -2.00011 0.838826 -3.41177 -2.11633 0.882833 -3.43605 -2.2659 0.947972 -3.48465 -2.41262 1.03546 -3.66718 -2.54573 1.14238 -3.84981 -2.71116 1.23798 -4.01103 -2.86527 1.35457 -4.16964 -2.99809 1.47062 -4.34681 -3.10233 1.60611 -4.52923 -3.15073 1.78717 -4.69468 -3.16773 1.96195 -4.87262 -3.17115 1.98765 -4.89996 -3.22234 2.14604 -5.08649 -3.25225 2.3222 -5.26135 -3.2803 2.49281 -5.44191 -3.26807 2.62618 -5.65301 -3.3214 2.70952 -5.8826 -3.42122 2.78847 -6.09778 -3.43395 2.79504 -6.12786 -3.45936 2.83879 -6.31291 0 0 -3 0.00997158 0.0529498 -3.01936 0.0115541 0.294158 -3.08506 0.0661768 0.511523 -3.19582 0.111965 0.71382 -3.33539 0.149848 0.898255 -3.49986 0.198196 1.02723 -3.70849 0.206622 1.04699 -3.73825 0.254262 1.14962 -3.96118 0.23218 1.24748 -4.19017 0.230571 1.34304 -4.42118 0.234272 1.36706 -4.47532 0.301611 1.48727 -4.68393 0.386355 1.54811 -4.91112 0.434581 1.57982 -5.15437 0.448232 1.58228 -5.24017 0.482865 1.59497 -5.48743 0.5055 1.53548 -5.72919 0.516141 1.4935 -5.97541 0.499581 1.41374 -6.21177 0.519845 1.31739 -6.44156 0.53107 1.27549 -6.52387 0.549797 1.23516 -6.64173 0.590253 1.16701 -6.87884 0.676984 1.06489 -7.0899 0.633181 0.935441 -7.29925 0.620761 0.80241 -7.51055 0.579783 0.661034 -7.71262 0.600261 0.553425 -7.85878 0.628921 0.412704 -8.06341 0.678122 0.338569 -8.22621 0 0 -3 0.00639545 -0.233155 -3.08999 0.000822429 -0.453623 -3.20773 0.0118419 -0.682544 -3.3076 0.0539446 -0.890915 -3.43916 0.0334082 -1.08122 -3.59998 0.000146123 -1.1955 -3.7933 -0.0419846 -1.31318 -4.00982 -0.04456 -1.43895 -4.22586 -0.0463725 -1.51208 -4.35228 -0.0399008 -1.64914 -4.56126 -0.0208314 -1.81348 -4.74868 -0.00260413 -1.97484 -4.93877 0.00396783 -2.12657 -5.13735 0.0078475 -2.18471 -5.19649 0.0389982 -2.34875 -5.38256 -0.0496321 -2.49478 -5.5651 -0.165508 -2.65445 -5.71865 -0.170726 -2.66149 -5.726 -0.306318 -2.816 -5.86827 -0.441797 -2.97332 -6.00755 -0.467345 -3.00332 -6.03354 -0.597118 -3.13831 -6.19918 -0.778698 -3.19453 -6.36156 -0.938592 -3.22983 -6.55047 -1.05202 -3.20511 -6.77188 -1.19263 -3.21327 -6.97843 -1.27119 -3.21936 -7.07897 -1.40677 -3.24193 -7.2878 -1.46148 -3.26075 -7.38122 -1.61397 -3.26693 -7.50775 0 0 -3 -0.110661 0.0468332 -3.21923 -0.229334 0.114637 -3.42856 -0.35041 0.175967 -3.63851 -0.455045 0.23719 -3.85715 -0.492957 0.262623 -4.10294 -0.473965 0.391033 -4.3166 -0.461315 0.459004 -4.42987 -0.468622 0.51302 -4.67385 -0.470617 0.591411 -4.91124 -0.438703 0.674902 -5.14471 -0.431582 0.77043 -5.37563 -0.452755 0.79037 -5.62394 -0.473551 0.807491 -5.87248 -0.573323 0.748839 -6.09408 -0.637903 0.71745 -6.23039 -0.709659 0.652002 -6.46075 -0.816499 0.539562 -6.65682 -0.922639 0.444159 -6.86208 -1.0084 0.357191 -7.08021 -1.15683 0.282524 -7.26701 -1.2985 0.206599 -7.45849 -1.43162 0.131056 -7.65616 -1.53967 0.0813626 -7.87606 -1.61049 -0.000974368 -8.04064 -1.6941 -0.182347 -8.19102 -1.73145 -0.386354 -8.33061 -1.79554 -0.496709 -8.39659 0 0 -3 -0.231441 -0.0791313 -3.0517 -0.445815 -0.119894 -3.1737 -0.645347 -0.210821 -3.29378 -0.81811 -0.283982 -3.36589 -1.04624 -0.352671 -3.44165 -1.27658 -0.422039 -3.50969 -1.49619 -0.505517 -3.59515 -1.73187 -0.567967 -3.65041 -1.96761 -0.640134 -3.69191 -2.17617 -0.737183 -3.78979 -2.25188 -0.766622 -3.82201 -2.46577 -0.867936 -3.90254 -2.61657 -1.01728 -4.03466 -2.75725 -1.18339 -4.15761 -2.91394 -1.33712 -4.27725 -3.07242 -1.44726 -4.43618 -3.23715 -1.54619 -4.5961 -3.39506 -1.53701 -4.78969 -3.42904 -1.53835 -4.83579 -3.48255 -1.51495 -5.07887 -3.52926 -1.47977 -5.32194 -3.53557 -1.47749 -5.33893 -3.68361 -1.57415 -5.51568 -3.83158 -1.67082 -5.69249 -3.97148 -1.78639 -5.86445 -4.12392 -1.86378 -6.04686 -4.27746 -1.93366 -6.23136 -4.30557 -1.94503 -6.26703 -4.46949 -2.03064 -6.43526 -4.4983 -2.04577 -6.46407 0 0 -3 -0.071597 -0.0296838 -2.98008 
</DataArray>
</Points>
<Lines>
<DataArray type="Int32" Name="connectivity" NumberOfComponents="1" format="ascii" >
0 1 2 3 4 5 6 7 8 9 10 11 12 13 14 15 16 17 18 19 20 21 22 23 24 25 26 27 28 29 30 31 32 33 34 35 36 37 38 39 40 41 42 43 44 45 46 47 48 49 50 51 52 53 54 55 56 57 58 59 60 61 62 63 64 65 66 67 68 69 70 71 72 73 74 75 76 77 78 79 80 81 82 83 84 85 86 87 88 89 90 91 92 93 94 95 96 97 98 99 100 101 102 103 104 105 106 107 108 109 110 111 112 113 114 115 116 117 118 119 120 121 122 123 124 125 126 127 128 129 130 131 132 133 134 135 136 137 138 139 140 141 142 143 144 145 146 147 148 149 150 151 152 153 154 155 156 157 158 159 160 161 162 163 164 165 166 167 168 169 170 171 172 173 174 175 176 177 178 179 180 181 182 183 184 185 186 187 188 189 190 191 192 193 194 195 196 197 198 199 200 201 202 203 204 205 206 207 208 209 210 211 212 213 214 215 216 217 218 219 220 221 222 223 224 225 226 227 228 229 230 231 232 233 234 235 236 237 238 239 240 241 242 243 244 245 246 247 248 249 250 251 252 253 254 255 256 257 258 259 260 261 262 263 264 265 266 267 268 269 270 271 272 273 274 275 276 277 278 279 280 281 282 283 284 285 286 287 288 289 290 291 292 293 294 295 296 297 298 299 300 301 302 303 304 305 306 307 308 309 310 311 312 313 314 315 316 317 318 319 320 321 322 323 324 325 326 327 328 329 330 331 332 333 334 335 336 337 338 339 340 341 342 343 344 345 346 347 348 349 350 351 352 353 354 355 356 357 358 359 360 361 362 363 364 365 366 367 368 369 370 371 372 373 374 375 376 377 378 379 380 381 382 383 384 385 386 387 388 389 390 391 392 393 394 395 396 397 398 399 400 401 402 403 404 405 406 407 408 409 410 411 412 413 414 415 416 417 418 419 420 421 422 423 424 425 426 427 428 429 430 431 432 433 434 435 436 437 438 439 440 441 442 443 444 445 446 447 448 449 450 451 452 453 454 455 456 457 458 459 460 461 462 463 464 465 466 467 468 469 470 471 472 473 474 475 476 477 
</DataArray>
<DataArray type="Int32" Name="offsets" NumberOfComponents="1" format="ascii" >
31 59 88 91 93 121 150 180 208 236 267 297 326 355 386 417 445 476 478 
</DataArray>

</Lines>
</Piece>
</PolyData>
</VTKFile>
