<?xml version="1.0"?><VTKFile type="PolyData" version="0.1" byte_order="LittleEndian">
<PolyData>
<Piece NumberOfLines="305" NumberOfPoints="940">
<PointData Scalars=" PointData">
<DataArray type="Float32" Name="time" NumberOfComponents="1" format="ascii" >
0 0.253558 0.461707 0.674812 0.893116 1.11688 1.34638 1.58192 1.82382 2.07245 2.32818 2.59144 2.86267 3.14238 3.43111 3.72948 4.03813 4.3578 4.68932 5.0336 5.39164 5.76461 6 0.461707 0.696428 0.978406 1.29576 1.63841 2.00336 2.37089 2.84989 3.30004 3.69787 4.03538 4.57758 5.20696 6 1.07326 1.13467 1.43973 3 1.13467 3 1.43973 3 1.37363 1.41905 1.66972 3 1.41905 3 1.66972 3 1.71279 1.77377 2.02089 3 1.77377 3 2.02089 3 2.08039 2.14202 2.401 3 2.14202 3 2.401 3 2.47361 2.54676 2.83421 3 2.54676 3 2.83421 6 2.87153 2.92157 3 3.12774 6 2.92157 6 3 6 3.39323 3.45464 3.75033 6 3.45464 6 3.75033 6 3.88698 3.94934 4.21454 6 3.94934 6 4.21454 6 4.3264 4.37267 4.62796 6 4.37267 6 4.62796 6 4.70163 4.74379 4.9605 6 4.74379 6 4.9605 6 5.30951 5.38662 5.7069 6 5.38662 6 5.7069 6 0.674812 1.10734 1.70624 2.20068 2.71494 3.24526 3.61553 4.16601 4.73704 5.24163 5.88348 6 1.3618 1.41852 1.73506 3 1.41852 3 1.73506 3 1.97098 2.02134 2.26434 3 2.02134 3 2.26434 3 2.47423 2.53958 2.80905 3 2.53958 3 2.80905 6 2.99796 3.05129 3.31376 6 3.05129 6 3.31376 6 3.5384 3.61399 3.92903 6 3.61399 6 3.92903 6 3.91596 3.97284 4.24054 6 3.97284 6 4.24054 6 4.47759 4.5345 4.78915 6 4.5345 6 4.78915 6 5.06064 5.11227 5.35071 6 5.11227 6 5.35071 6 5.57625 5.62963 5.86235 6 5.62963 6 5.86235 6 0.893116 1.24869 1.61814 1.97612 2.25276 2.63306 2.94991 3.25738 3.63726 3.97917 4.31309 4.71821 5.19928 5.67745 6 1.36824 1.44213 1.79 3 1.44213 3 1.79 3 1.7415 1.80254 2.09669 3 1.80254 3 2.09669 3 2.10328 2.17458 2.50694 3 2.17458 3 2.50694 3 2.38294 2.4217 2.63119 3 2.4217 3 2.63119 3 2.76751 2.83581 3 3.12817 6 2.83581 6 3 6 3.08802 3.13269 3.3874 6 3.13269 6 3.3874 6 3.39913 3.44497 3.69278 6 3.44497 6 3.69278 6 3.78366 3.85194 4.12071 6 3.8527 6 4.12297 6 4.12988 4.18748 4.44875 6 4.18748 6 4.44875 6 4.46814 4.51664 4.77999 6 4.51664 6 4.77999 6 4.87869 4.94 5.23577 6 4.94 6 5.23577 6 5.36645 5.42591 5.69355 6 5.42591 6 5.69355 6 5.85154 5.89555 6 5.89555 6 1.11688 1.39016 1.66243 1.91622 2.25314 2.59515 2.86459 3.23912 3.66194 4.16563 4.56705 5.07071 5.54962 6 1.81923 1.89083 2.18113 3 1.89083 3 2.18113 3 2.10343 2.16642 2.43321 3 2.16642 3 2.43321 3 2.36864 2.42462 2.69375 3 2.42462 3 2.69375 6 2.7212 2.77765 3 3.04121 6 2.77765 6 3 6 3.07964 3.13532 3.42432 6 3.13532 6 3.42432 6 3.36245 3.41463 3.67808 6 3.41463 6 3.67808 6 3.75619 3.80894 4.08146 6 3.80894 6 4.08146 6 4.20162 4.2574 4.53777 6 4.2574 6 4.53777 6 4.73356 4.79434 5.08546 6 4.79434 6 5.08546 6 5.15859 5.21424 5.47776 6 5.21424 6 5.47776 6 5.6933 5.75958 6 5.75958 6 1.34638 2.96577 6 1.58192 2.00546 2.37206 2.85413 3.31702 3.6318 4.197 4.915 5.54863 6 2.30307 2.36275 2.62232 3 2.36275 3 2.62232 3 2.69229 2.74238 2.98917 3 2.74238 6 2.98917 6 3.20685 3.2636 3.53382 6 3.2636 6 3.53382 6 3.70415 3.76176 4.06784 6 3.76176 6 4.06784 6 4.0443 4.10105 4.38414 6 4.10105 6 4.38414 6 4.6595 4.71586 4.98688 6 4.71586 6 4.98688 6 5.45033 5.49838 5.72597 6 5.49838 6 5.72597 6 1.82382 2.12947 2.48742 2.81252 3.11725 3.53187 3.91436 4.46375 5.01654 5.4668 6 2.4493 2.49847 2.73091 3 2.49847 3 2.73091 6 2.83328 2.88704 3 3.14897 6 2.88704 6 3 6 3.18393 3.24047 3.50613 6 3.24047 6 3.50613 6 3.51438 3.56261 3.78743 6 3.56261 6 3.78743 6 3.96704 4.02743 4.30306 6 4.02743 6 4.30306 6 4.38798 4.45887 4.78103 6 4.45887 6 4.78103 6 4.999 5.04695 5.27993 6 5.04695 6 5.27993 6 5.62242 5.67372 5.95732 6 5.67372 6 5.95732 6 2.07245 2.20523 2.49249 2.9347 3.14063 3.49587 3.96119 4.42364 4.77935 5.29404 5.72376 6 2.61462 2.66863 2.92377 3 2.66863 3 2.92377 6 2.92137 2.96986 3 3.21233 6 2.96986 6 3 6 3.39547 3.45567 3.74954 6 3.45567 6 3.74954 6 3.61708 3.67334 3.9663 6 3.67334 6 3.9663 6 4.00069 4.05774 4.33321 6 4.05774 6 4.33321 6 4.50586 4.56551 4.83515 6 4.56551 6 4.83515 6 5.01117 5.06366 5.30333 6 5.06366 6 5.30333 6 5.40223 5.46145 5.76085 6 5.46145 6 5.76085 6 5.9721 6 2.32818 2.66918 2.96545 3.37525 3.81809 4.33143 4.86787 5.28523 5.79256 6 3.13045 3.19335 3.46436 6 3.19335 6 3.46436 6 3.44198 3.49494 3.74252 6 3.49494 6 3.74252 6 3.87376 3.92391 4.20724 6 3.92391 6 4.20724 6 4.34152 4.38516 4.61112 6 4.38697 6 4.61652 6 4.88536 4.94031 5.17065 6 4.94031 6 5.17065 6 5.45563 5.50801 5.77778 6 5.50801 6 5.77778 6 5.90078 5.96057 6 5.96057 6 2.59144 2.77528 3.15121 3.53685 4.08067 4.6186 5.60147 6 3.05298 3.12584 3.43514 6 3.12584 6 3.43514 6 3.48373 3.5263 3.73984 6 3.5263 6 3.73984 6 3.93792 3.98234 4.21771 6 3.98234 6 4.21771 6 4.60615 4.6741 4.95584 6 4.6741 6 4.95584 6 5.31137 5.36266 5.64179 6 5.36266 6 5.64179 6 2.86267 5.40943 6 3.14238 3.38786 3.84922 4.48671 5.21121 6 3.82515 3.88376 4.1529 6 3.88376 6 4.1529 6 4.4546 4.53039 4.85561 6 4.53039 6 4.85561 6 5.47376 5.52804 5.79774 6 5.52804 6 5.79774 6 3.43111 3.78161 4.13305 4.63132 5.18802 5.64219 6 4.2325 4.27788 4.5183 6 4.27788 6 4.5183 6 4.60732 4.65163 4.90333 6 4.65163 6 4.90333 6 5.14091 5.20438 5.4748 6 5.20438 6 5.4748 6 5.74032 5.802 6 5.802 6 3.72948 4.00672 4.44531 5.01763 5.71157 6 4.47708 4.54784 4.84557 6 4.54784 6 4.84557 6 4.97481 5.03612 5.3232 6 5.03612 6 5.3232 6 5.63653 5.68899 5.93268 6 5.68899 6 5.93268 6 4.03813 4.29834 4.75555 5.12865 5.69873 6 4.67943 4.73927 5.01451 6 4.73927 6 5.01451 6 5.18947 5.23263 5.47104 6 5.23263 6 5.47104 6 5.61143 5.66368 5.93067 6 5.66368 6 5.93067 6 4.3578 4.78787 5.1561 5.66533 6 5.16217 5.22434 5.49752 6 5.22434 6 5.49752 6 5.54323 5.5901 5.8343 6 5.5901 6 5.8343 6 4.68932 4.83219 5.13645 5.50629 5.83449 6 5.41324 5.46007 5.68528 6 5.46007 6 5.68528 6 5.74072 5.78928 6 5.78928 6 5.0336 5.37097 6 5.39164 5.67785 6 5.76461 5.99126 6 
</DataArray>

</PointData>
<CellData Scalars=" CellData">
<DataArray type="Float32" Name="radius" NumberOfComponents="1" format="ascii" >
0.05 0.03 0.02 0.02 0.02 0.02 0.02 0.02 0.02 0.02 0.02 0.02 0.02 0.02 0.02 0.02 0.02 0.02 0.02 0.02 0.02 0.02 0.02 0.02 0.02 0.02 0.02 0.02 0.02 0.02 0.02 0.02 0.02 0.02 0.02 0.03 0.02 0.02 0.02 0.02 0.02 0.02 0.02 0.02 0.02 0.02 0.02 0.02 0.02 0.02 0.02 0.02 0.02 0.02 0.02 0.02 0.02 0.02 0.02 0.02 0.02 0.02 0.02 0.03 0.02 0.02 0.02 0.02 0.02 0.02 0.02 0.02 0.02 0.02 0.02 0.02 0.02 0.02 0.02 0.02 0.02 0.02 0.02 0.02 0.02 0.02 0.02 0.02 0.02 0.02 0.02 0.02 0.02 0.02 0.02 0.02 0.02 0.02 0.02 0.02 0.02 0.02 0.03 0.02 0.02 0.02 0.02 0.02 0.02 0.02 0.02 0.02 0.02 0.02 0.02 0.02 0.02 0.02 0.02 0.02 0.02 0.02 0.02 0.02 0.02 0.02 0.02 0.02 0.02 0.02 0.02 0.02 0.02 0.02 0.02 0.03 0.03 0.02 0.02 0.02 0.02 0.02 0.02 0.02 0.02 0.02 0.02 0.02 0.02 0.02 0.02 0.02 0.02 0.02 0.02 0.02 0.02 0.02 0.03 0.02 0.02 0.02 0.02 0.02 0.02 0.02 0.02 0.02 0.02 0.02 0.02 0.02 0.02 0.02 0.02 0.02 0.02 0.02 0.02 0.02 0.02 0.02 0.02 0.03 0.02 0.02 0.02 0.02 0.02 0.02 0.02 0.02 0.02 0.02 0.02 0.02 0.02 0.02 0.02 0.02 0.02 0.02 0.02 0.02 0.02 0.02 0.02 0.02 0.02 0.03 0.02 0.02 0.02 0.02 0.02 0.02 0.02 0.02 0.02 0.02 0.02 0.02 0.02 0.02 0.02 0.02 0.02 0.02 0.02 0.02 0.03 0.02 0.02 0.02 0.02 0.02 0.02 0.02 0.02 0.02 0.02 0.02 0.02 0.02 0.02 0.02 0.03 0.03 0.02 0.02 0.02 0.02 0.02 0.02 0.02 0.02 0.02 0.03 0.02 0.02 0.02 0.02 0.02 0.02 0.02 0.02 0.02 0.02 0.02 0.03 0.02 0.02 0.02 0.02 0.02 0.02 0.02 0.02 0.02 0.03 0.02 0.02 0.02 0.02 0.02 0.02 0.02 0.02 0.02 0.03 0.02 0.02 0.02 0.02 0.02 0.02 0.03 0.02 0.02 0.02 0.02 0.02 0.03 0.03 0.03 
</DataArray>
<DataArray type="Float32" Name="subType" NumberOfComponents="1" format="ascii" >
1 2 3 4 4 3 4 4 3 4 4 3 4 4 3 4 4 3 4 4 3 4 4 3 4 4 3 4 4 3 4 4 3 4 4 2 3 4 4 3 4 4 3 4 4 3 4 4 3 4 4 3 4 4 3 4 4 3 4 4 3 4 4 2 3 4 4 3 4 4 3 4 4 3 4 4 3 4 4 3 4 4 3 4 4 3 4 4 3 4 4 3 4 4 3 4 4 3 4 4 3 4 2 3 4 4 3 4 4 3 4 4 3 4 4 3 4 4 3 4 4 3 4 4 3 4 4 3 4 4 3 4 4 3 4 2 2 3 4 4 3 4 4 3 4 4 3 4 4 3 4 4 3 4 4 3 4 4 2 3 4 4 3 4 4 3 4 4 3 4 4 3 4 4 3 4 4 3 4 4 3 4 4 2 3 4 4 3 4 4 3 4 4 3 4 4 3 4 4 3 4 4 3 4 4 3 4 4 3 2 3 4 4 3 4 4 3 4 4 3 4 4 3 4 4 3 4 4 3 4 2 3 4 4 3 4 4 3 4 4 3 4 4 3 4 4 2 2 3 4 4 3 4 4 3 4 4 2 3 4 4 3 4 4 3 4 4 3 4 2 3 4 4 3 4 4 3 4 4 2 3 4 4 3 4 4 3 4 4 2 3 4 4 3 4 4 2 3 4 4 3 4 2 2 2 
</DataArray>
<DataArray type="Float32" Name="creationTime" NumberOfComponents="1" format="ascii" >
0 0.461707 1.07326 1.13467 1.43973 1.37363 1.41905 1.66972 1.71279 1.77377 2.02089 2.08039 2.14202 2.401 2.47361 2.54676 2.83421 2.87153 2.92157 3 3.39323 3.45464 3.75033 3.88698 3.94934 4.21454 4.3264 4.37267 4.62796 4.70163 4.74379 4.9605 5.30951 5.38662 5.7069 0.674812 1.3618 1.41852 1.73506 1.97098 2.02134 2.26434 2.47423 2.53958 2.80905 2.99796 3.05129 3.31376 3.5384 3.61399 3.92903 3.91596 3.97284 4.24054 4.47759 4.5345 4.78915 5.06064 5.11227 5.35071 5.57625 5.62963 5.86235 0.893116 1.36824 1.44213 1.79 1.7415 1.80254 2.09669 2.10328 2.17458 2.50694 2.38294 2.4217 2.63119 2.76751 2.83581 3 3.08802 3.13269 3.3874 3.39913 3.44497 3.69278 3.78366 3.8527 4.12297 4.12988 4.18748 4.44875 4.46814 4.51664 4.77999 4.87869 4.94 5.23577 5.36645 5.42591 5.69355 5.85154 5.89555 1.11688 1.81923 1.89083 2.18113 2.10343 2.16642 2.43321 2.36864 2.42462 2.69375 2.7212 2.77765 3 3.07964 3.13532 3.42432 3.36245 3.41463 3.67808 3.75619 3.80894 4.08146 4.20162 4.2574 4.53777 4.73356 4.79434 5.08546 5.15859 5.21424 5.47776 5.6933 5.75958 1.34638 1.58192 2.30307 2.36275 2.62232 2.69229 2.74238 2.98917 3.20685 3.2636 3.53382 3.70415 3.76176 4.06784 4.0443 4.10105 4.38414 4.6595 4.71586 4.98688 5.45033 5.49838 5.72597 1.82382 2.4493 2.49847 2.73091 2.83328 2.88704 3 3.18393 3.24047 3.50613 3.51438 3.56261 3.78743 3.96704 4.02743 4.30306 4.38798 4.45887 4.78103 4.999 5.04695 5.27993 5.62242 5.67372 5.95732 2.07245 2.61462 2.66863 2.92377 2.92137 2.96986 3 3.39547 3.45567 3.74954 3.61708 3.67334 3.9663 4.00069 4.05774 4.33321 4.50586 4.56551 4.83515 5.01117 5.06366 5.30333 5.40223 5.46145 5.76085 5.9721 2.32818 3.13045 3.19335 3.46436 3.44198 3.49494 3.74252 3.87376 3.92391 4.20724 4.34152 4.38697 4.61652 4.88536 4.94031 5.17065 5.45563 5.50801 5.77778 5.90078 5.96057 2.59144 3.05298 3.12584 3.43514 3.48373 3.5263 3.73984 3.93792 3.98234 4.21771 4.60615 4.6741 4.95584 5.31137 5.36266 5.64179 2.86267 3.14238 3.82515 3.88376 4.1529 4.4546 4.53039 4.85561 5.47376 5.52804 5.79774 3.43111 4.2325 4.27788 4.5183 4.60732 4.65163 4.90333 5.14091 5.20438 5.4748 5.74032 5.802 3.72948 4.47708 4.54784 4.84557 4.97481 5.03612 5.3232 5.63653 5.68899 5.93268 4.03813 4.67943 4.73927 5.01451 5.18947 5.23263 5.47104 5.61143 5.66368 5.93067 4.3578 5.16217 5.22434 5.49752 5.54323 5.5901 5.8343 4.68932 5.41324 5.46007 5.68528 5.74072 5.78928 5.0336 5.39164 5.76461 
</DataArray>

</CellData>
<Points>
<DataArray type="Float32" Name="Coordinates" NumberOfComponents="3" format="ascii" >
0 0 -3 -0.0135551 -0.00379122 -3.9999 0.013199 0.145694 -4.78536 0.036447 0.377517 -5.55068 -0.0569688 0.48328 -6.33813 -0.37283 1.15829 -6.62898 -0.952811 1.15223 -7.17997 -1.4833 0.894104 -7.72029 -1.64196 0.511376 -8.40465 -1.50798 0.312629 -9.1679 -1.64891 0.671762 -9.86873 -1.82508 0.911578 -10.6113 -1.98676 1.16157 -11.3539 -1.97706 1.46791 -12.0928 -1.99446 1.91204 -12.758 -1.88679 1.67262 -13.5137 -1.88942 1.56242 -14.3061 -2.00407 1.33209 -15.0636 -2.20679 1.00459 -15.7647 -2.11946 0.785569 -16.5292 -2.30872 0.748075 -17.3056 -2.43283 0.809543 -18.0935 -2.25136 0.665117 -18.5229 -0.0135551 -0.00379122 -3.9999 0.262992 -0.178221 -4.09757 0.560247 -0.42843 -4.03869 0.901241 -0.667397 -3.97578 1.25552 -0.902783 -3.90752 1.60573 -1.15744 -3.90792 1.94753 -1.37973 -3.85854 2.31978 -1.71198 -3.88174 2.64418 -2.00161 -3.87048 2.91732 -2.23297 -3.84797 3.18599 -2.33227 -3.84134 3.535 -2.57977 -3.86221 3.82317 -2.92321 -3.80593 4.14321 -3.30979 -3.7347 0.262992 -0.178221 -4.09757 0.360946 -0.152001 -4.07175 0.57436 -0.26113 -4.0597 0.631045 -0.312259 -4.0532 0.360946 -0.152001 -4.07175 0.327184 0.173295 -3.81779 0.57436 -0.26113 -4.0597 0.839662 0.0332527 -4.09738 0.560247 -0.42843 -4.03869 0.61494 -0.397051 -3.98393 0.710682 -0.311896 -3.781 0.771541 -0.247531 -3.72849 0.61494 -0.397051 -3.98393 0.944427 -0.502115 -4.12932 0.710682 -0.311896 -3.781 0.898065 -0.648381 -3.63486 0.901241 -0.667397 -3.97578 1.00697 -0.62895 -3.93251 1.24538 -0.627791 -3.90495 1.34305 -0.623387 -3.90721 1.00697 -0.62895 -3.93251 1.03834 -0.289191 -4.05373 1.24538 -0.627791 -3.90495 1.46674 -0.463992 -4.23158 1.25552 -0.902783 -3.90752 1.30136 -0.876152 -4.01075 1.39364 -0.821423 -4.22543 1.41604 -0.804214 -4.31295 1.30136 -0.876152 -4.01075 1.65859 -0.71895 -3.93047 1.39364 -0.821423 -4.22543 1.22784 -0.96493 -4.55263 1.60573 -1.15744 -3.90792 1.71058 -1.13553 -3.96316 1.83137 -0.98708 -4.10797 1.84738 -0.94928 -4.14169 1.71058 -1.13553 -3.96316 1.76325 -0.74233 -3.91784 1.83137 -0.98708 -4.10797 1.62871 -0.54788 -4.1644 1.94753 -1.37973 -3.85854 2.01589 -1.34304 -3.7735 2.09492 -1.28467 -3.69559 2.16385 -1.21967 -3.63109 2.22354 -1.1695 -3.55933 2.01589 -1.34304 -3.7735 1.83201 -1.15392 -3.4918 2.09492 -1.28467 -3.69559 2.1989 -1.48514 -3.41467 2.31978 -1.71198 -3.88174 2.36976 -1.71761 -3.96408 2.52054 -1.78496 -4.13823 2.56767 -1.82252 -4.22496 2.36976 -1.71761 -3.96408 2.71207 -1.48025 -3.94599 2.52054 -1.78496 -4.13823 2.52639 -1.35144 -4.36347 2.64418 -2.00161 -3.87048 2.71792 -1.95814 -3.9343 2.83784 -1.88285 -4.12808 2.89223 -1.84648 -4.22613 2.71792 -1.95814 -3.9343 2.68761 -2.17259 -4.31702 2.83784 -1.88285 -4.12808 2.67336 -1.99983 -4.4752 2.91732 -2.23297 -3.84797 2.89567 -2.29637 -3.89674 2.91223 -2.31481 -4.13546 2.89498 -2.35639 -4.23077 2.89567 -2.29637 -3.89674 2.60038 -2.27013 -4.08974 2.91223 -2.31481 -4.13546 2.75219 -2.62313 -4.2484 3.18599 -2.33227 -3.84134 3.1854 -2.42134 -3.84156 3.08369 -2.62328 -3.92203 3.05277 -2.72489 -3.93656 3.1854 -2.42134 -3.84156 3.08033 -2.65629 -3.48096 3.08369 -2.62328 -3.92203 3.17607 -2.93983 -3.69097 3.535 -2.57977 -3.86221 3.6333 -2.54611 -3.929 3.82231 -2.51769 -4.07416 3.86888 -2.51019 -4.11191 3.6333 -2.54611 -3.929 3.82094 -2.82337 -4.06735 3.82231 -2.51769 -4.07416 3.99012 -2.32867 -3.95968 0.013199 0.145694 -4.78536 0.425055 0.437195 -4.84903 0.824868 0.984838 -4.91017 0.923028 1.51605 -4.95725 1.03526 2.04636 -5.01957 1.10451 2.58541 -5.03587 1.17103 2.9475 -5.01841 1.2632 3.46305 -4.92687 1.42284 3.96296 -4.84206 1.64508 4.35792 -4.82683 1.89104 4.85582 -4.84158 1.9361 4.94318 -4.84497 0.425055 0.437195 -4.84903 0.457051 0.467862 -4.77175 0.553792 0.524762 -4.55961 0.582956 0.531619 -4.48272 0.457051 0.467862 -4.77175 0.665105 0.160202 -4.62548 0.553792 0.524762 -4.55961 0.955298 0.527168 -4.54795 0.824868 0.984838 -4.91017 0.802261 1.06488 -4.86484 0.712586 1.26058 -4.75874 0.663931 1.34744 -4.79832 0.802261 1.06488 -4.86484 1.10521 1.1945 -4.60891 0.712586 1.26058 -4.75874 0.54862 1.56956 -4.93188 0.923028 1.51605 -4.95725 1.02004 1.53505 -5.01405 1.17275 1.62993 -5.17303 1.21392 1.64934 -5.21368 1.02004 1.53505 -5.01405 1.31462 1.33349 -4.90755 1.17275 1.62993 -5.17303 1.08139 1.90626 -5.37436 1.03526 2.04636 -5.01957 0.992692 2.08554 -5.10189 0.907597 2.18632 -5.3024 0.88391 2.22568 -5.37718 0.992692 2.08554 -5.10189 1.22389 2.36358 -5.27799 0.907597 2.18632 -5.3024 0.836897 2.56317 -5.30631 1.10451 2.58541 -5.03587 1.16728 2.62536 -5.12428 1.31482 2.70869 -5.29424 1.38039 2.75132 -5.35827 1.16728 2.62536 -5.12428 1.34852 2.30346 -5.26337 1.31482 2.70869 -5.29424 1.66654 3.07142 -5.28919 1.17103 2.9475 -5.01841 1.2738 2.96571 -5.01625 1.43824 3.11501 -5.10718 1.50326 3.17823 -5.09689 1.2738 2.96571 -5.01625 1.46069 2.90083 -4.62691 1.43824 3.11501 -5.10718 1.81747 2.92215 -5.10822 1.2632 3.46305 -4.92687 1.22619 3.51011 -4.83929 1.13278 3.63018 -4.65367 1.0801 3.69035 -4.59048 1.22619 3.51011 -4.83929 0.953552 3.33978 -4.66788 1.13278 3.63018 -4.65367 1.43236 3.79968 -4.42054 1.42284 3.96296 -4.84206 1.51434 3.94961 -4.87858 1.73772 3.91827 -4.96055 1.8129 3.94849 -5.02896 1.51434 3.94961 -4.87858 1.68936 3.63348 -4.72226 1.73772 3.91827 -4.96055 1.80589 4.24513 -5.09876 1.64508 4.35792 -4.82683 1.58981 4.41015 -4.90394 1.50878 4.53315 -5.09342 1.49008 4.56089 -5.13452 1.58981 4.41015 -4.90394 1.40463 4.64329 -4.76111 1.50878 4.53315 -5.09342 1.29775 4.47761 -5.15684 0.036447 0.377517 -5.55068 0.158676 0.92212 -5.52953 0.350152 1.45094 -5.50656 0.540071 1.94455 -5.5131 0.711611 2.30361 -5.51396 0.912453 2.7916 -5.44552 1.16664 3.13901 -5.44121 1.40826 3.45005 -5.33909 1.66298 3.85704 -5.24982 1.83923 4.24074 -5.19072 2.01054 4.60359 -5.13797 2.26896 5.00323 -5.13454 2.5748 5.44797 -5.06331 2.83169 5.89965 -5.07212 2.92582 6.21709 -4.99979 0.158676 0.92212 -5.52953 0.251969 0.925893 -5.57148 0.424362 0.969187 -5.73274 0.507823 0.953121 -5.7751 0.251969 0.925893 -5.57148 0.5362 0.935265 -5.34261 0.424362 0.969187 -5.73274 0.517696 0.627692 -5.91986 0.350152 1.45094 -5.50656 0.325305 1.49801 -5.42585 0.153158 1.52249 -5.26042 0.0720604 1.52063 -5.19849 0.325305 1.49801 -5.42585 0.539242 1.79209 -5.29012 0.153158 1.52249 -5.26042 0.163361 1.89248 -5.09022 0.540071 1.94455 -5.5131 0.539868 1.98687 -5.60364 0.421957 2.07506 -5.79316 0.3827 2.07371 -5.87159 0.539868 1.98687 -5.60364 0.712598 2.36185 -5.69076 0.421957 2.07506 -5.79316 0.622542 2.13125 -6.0283 0.711611 2.30361 -5.51396 0.665297 2.35843 -5.56395 0.571673 2.44708 -5.76637 0.522292 2.44193 -5.83645 0.665297 2.35843 -5.56395 0.361115 2.24553 -5.70984 0.571673 2.44708 -5.76637 0.822051 2.39719 -5.99381 0.912453 2.7916 -5.44552 0.86733 2.87359 -5.49648 0.825351 2.99009 -5.60752 0.788318 3.02587 -5.66021 0.729894 3.08173 -5.74361 0.86733 2.87359 -5.49648 0.829171 3.22422 -5.34866 0.825351 2.99009 -5.60752 0.468547 2.9975 -5.69388 1.16664 3.13901 -5.44121 1.15866 3.18448 -5.37003 1.12968 3.308 -5.1663 1.10969 3.3419 -5.08666 1.15866 3.18448 -5.37003 0.91762 3.4608 -5.40183 1.12968 3.308 -5.1663 0.761907 3.47354 -5.15257 1.40826 3.45005 -5.33909 1.49069 3.43674 -5.36667 1.71686 3.39449 -5.43496 1.7942 3.38705 -5.48966 1.49069 3.43674 -5.36667 1.49326 3.25924 -5.66001 1.71686 3.39449 -5.43496 1.89303 3.11265 -5.20519 1.66298 3.85704 -5.24982 1.65914 3.92532 -5.15672 1.48913 4.09186 -5.12569 1.37579 4.13313 -5.13583 1.65914 3.92532 -5.15672 1.44104 4.21759 -5.28289 1.48913 4.09186 -5.12569 1.59909 4.21068 -5.51111 1.83923 4.24074 -5.19072 1.78004 4.32457 -5.20807 1.64337 4.51373 -5.26409 1.56911 4.58041 -5.29011 1.78004 4.32457 -5.20807 1.55669 4.34125 -5.52269 1.64337 4.51373 -5.26409 1.66373 4.80797 -4.94005 2.01054 4.60359 -5.13797 1.99108 4.63918 -5.05913 1.87492 4.76069 -4.88783 1.82937 4.81855 -4.83381 1.99108 4.63918 -5.05913 1.5746 4.78235 -5.13317 1.87492 4.76069 -4.88783 1.52783 4.93376 -5.04281 2.26896 5.00323 -5.13454 2.19882 5.07559 -5.14615 2.00545 5.2098 -5.19305 1.93478 5.25912 -5.21128 2.19882 5.07559 -5.14615 1.85386 4.94478 -4.84774 2.00545 5.2098 -5.19305 1.97354 5.46178 -4.94728 2.5748 5.44797 -5.06331 2.66014 5.41865 -5.01317 2.82295 5.40874 -5.18923 2.88329 5.43036 -5.23687 2.66014 5.41865 -5.01317 2.83453 5.73411 -4.77497 2.82295 5.40874 -5.18923 2.83803 5.11845 -5.33256 2.83169 5.89965 -5.07212 2.90874 5.88701 -5.07004 3.03726 5.85865 -5.06334 2.90874 5.88701 -5.07004 2.97307 6.02309 -5.04031 -0.0569688 0.48328 -6.33813 -0.173264 0.121764 -6.54421 -0.30855 -0.23072 -6.72602 -0.176233 -0.554847 -6.87532 -0.0149897 -1.01289 -6.8041 0.194938 -1.44648 -6.79632 0.299082 -1.79401 -6.85969 0.533723 -2.22223 -6.77278 0.946278 -2.56776 -6.75802 1.30596 -3.06052 -6.81464 1.6006 -3.42172 -6.84266 1.32976 -3.91226 -6.84493 1.06372 -4.34424 -6.86243 0.837632 -4.73135 -6.77888 -0.173264 0.121764 -6.54421 -0.111452 0.0278427 -6.5084 0.0164674 -0.173098 -6.53771 0.0709511 -0.257578 -6.54091 -0.111452 0.0278427 -6.5084 -0.205986 -0.267396 -6.69682 0.0164674 -0.173098 -6.53771 0.0636356 -0.432944 -6.28959 -0.30855 -0.23072 -6.72602 -0.307509 -0.218193 -6.83937 -0.338 -0.173229 -7.07314 -0.357087 -0.168641 -7.16334 -0.307509 -0.218193 -6.83937 0.0584963 -0.118477 -6.99296 -0.338 -0.173229 -7.07314 -0.712838 -0.207481 -7.19653 -0.176233 -0.554847 -6.87532 -0.168601 -0.552045 -6.9771 -0.144447 -0.578692 -7.21439 -0.142558 -0.595365 -7.28226 -0.168601 -0.552045 -6.9771 0.112333 -0.4429 -7.13287 -0.144447 -0.578692 -7.21439 -0.562508 -0.679959 -7.37994 -0.0149897 -1.01289 -6.8041 0.0732689 -1.00917 -6.84812 0.199942 -0.970239 -7.0215 0.212047 -0.966406 -7.03919 0.253649 -0.925833 -7.13177 0.0732689 -1.00917 -6.84812 0.0918733 -0.688377 -7.13463 0.199942 -0.970239 -7.0215 -0.0222802 -0.92196 -7.35933 0.194938 -1.44648 -6.79632 0.164135 -1.51102 -6.73907 0.0159561 -1.62989 -6.5924 -0.0474611 -1.67709 -6.53737 0.164135 -1.51102 -6.73907 -0.0857847 -1.81452 -6.92639 0.0159561 -1.62989 -6.5924 -0.0322497 -2.05834 -6.69341 0.299082 -1.79401 -6.85969 0.242669 -1.83317 -6.92508 0.123098 -1.82195 -7.13287 0.0767687 -1.81125 -7.21564 0.242669 -1.83317 -6.92508 0.333326 -1.74868 -7.29446 0.123098 -1.82195 -7.13287 0.325063 -1.95862 -7.42974 0.533723 -2.22223 -6.77278 0.564939 -2.20986 -6.69049 0.623369 -2.10232 -6.48404 0.634617 -2.04244 -6.39662 0.564939 -2.20986 -6.69049 0.938815 -2.34716 -6.68406 0.623369 -2.10232 -6.48404 0.498071 -2.37481 -6.13804 0.946278 -2.56776 -6.75802 0.982631 -2.57322 -6.67408 1.12777 -2.47949 -6.5075 1.19271 -2.43367 -6.43679 0.982631 -2.57322 -6.67408 0.670532 -2.75253 -6.47349 1.12777 -2.47949 -6.5075 1.21564 -2.12014 -6.48882 1.30596 -3.06052 -6.81464 1.39369 -3.06403 -6.76705 1.57719 -3.15565 -6.64242 1.63967 -3.20782 -6.59231 1.39369 -3.06403 -6.76705 1.37619 -2.69905 -6.55398 1.57719 -3.15565 -6.64242 1.85467 -2.85531 -6.59221 1.6006 -3.42172 -6.84266 1.61074 -3.44303 -6.93548 1.60354 -3.44661 -7.17534 1.5989 -3.44573 -7.27696 1.61074 -3.44303 -6.93548 1.24855 -3.28265 -7.14948 1.60354 -3.44661 -7.17534 1.75885 -3.70072 -7.3684 1.32976 -3.91226 -6.84493 1.38995 -3.96088 -6.91455 1.48495 -3.99604 -7.09813 1.38995 -3.96088 -6.91455 1.26751 -4.12171 -7.10843 -0.37283 1.15829 -6.62898 0.287506 1.50694 -5.96385 0.404944 1.56101 -5.86552 -0.952811 1.15223 -7.17997 -0.740652 0.697098 -7.56792 -0.717099 0.266658 -7.83799 -0.741535 -0.281238 -8.11882 -0.790046 -0.811193 -8.20937 -0.864053 -1.14318 -8.22186 -0.952531 -1.69725 -8.2054 -1.04604 -2.31997 -8.19183 -0.688575 -2.65138 -8.19171 -0.449602 -2.85109 -8.21701 -0.740652 0.697098 -7.56792 -0.770306 0.713661 -7.67592 -0.818443 0.768414 -7.90458 -0.837841 0.789626 -7.97807 -0.770306 0.713661 -7.67592 -0.561648 0.448829 -7.81571 -0.818443 0.768414 -7.90458 -1.01683 1.05252 -7.91169 -0.717099 0.266658 -7.83799 -0.621726 0.247051 -7.84143 -0.429936 0.280443 -7.98179 -0.425799 0.281286 -7.9847 -0.621726 0.247051 -7.84143 -0.428846 0.617358 -7.90501 -0.429936 0.280443 -7.98179 -0.467241 0.569085 -8.29627 -0.741535 -0.281238 -8.11882 -0.7473 -0.365528 -8.0785 -0.792642 -0.585348 -7.99351 -0.845677 -0.677678 -7.93963 -0.7473 -0.365528 -8.0785 -1.01998 -0.462439 -7.81991 -0.792642 -0.585348 -7.99351 -0.699231 -0.626267 -7.61335 -0.790046 -0.811193 -8.20937 -0.787995 -0.830998 -8.29398 -0.762767 -0.91624 -8.51691 -0.736521 -0.896935 -8.61541 -0.787995 -0.830998 -8.29398 -0.580205 -0.610694 -8.47591 -0.762767 -0.91624 -8.51691 -1.03433 -1.18771 -8.64863 -0.864053 -1.14318 -8.22186 -0.910655 -1.16862 -8.30337 -1.02999 -1.24165 -8.49837 -1.05467 -1.25265 -8.5866 -0.910655 -1.16862 -8.30337 -0.61107 -1.14307 -8.6801 -1.02999 -1.24165 -8.49837 -0.988156 -0.953584 -8.83507 -0.952531 -1.69725 -8.2054 -1.04913 -1.71659 -8.18588 -1.27126 -1.76299 -8.264 -1.34905 -1.81136 -8.28517 -1.04913 -1.71659 -8.18588 -1.16339 -2.14125 -8.36447 -1.27126 -1.76299 -8.264 -1.61904 -1.57942 -8.05194 -1.04604 -2.31997 -8.19183 -1.12254 -2.36194 -8.15308 -1.27303 -2.52193 -8.05635 -1.32776 -2.58403 -8.03606 -1.12254 -2.36194 -8.15308 -1.3975 -2.25861 -8.41466 -1.27303 -2.52193 -8.05635 -1.57941 -2.37693 -7.96872 -1.4833 0.894104 -7.72029 -1.48092 1.14323 -8.12121 -1.46849 1.42074 -8.55539 -1.31286 1.61755 -8.91146 -1.3569 1.91967 -9.14108 -1.34533 2.34402 -9.36912 -1.36681 2.71985 -9.52812 -1.53983 3.222 -9.49468 -1.76811 3.63938 -9.46473 -1.90531 3.96024 -9.45155 -1.99653 4.32169 -9.4455 -1.48092 1.14323 -8.12121 -1.52656 1.12199 -8.21047 -1.54715 1.0343 -8.43292 -1.55449 1.00594 -8.49949 -1.52656 1.12199 -8.21047 -1.72667 1.3861 -8.33491 -1.54715 1.0343 -8.43292 -1.38574 1.31672 -8.68809 -1.46849 1.42074 -8.55539 -1.40068 1.49157 -8.55108 -1.3008 1.58838 -8.56714 -1.22128 1.64481 -8.58923 -1.14748 1.70374 -8.61157 -1.40068 1.49157 -8.55108 -1.21147 1.54936 -8.87827 -1.3008 1.58838 -8.56714 -1.35141 1.82409 -8.43652 -1.31286 1.61755 -8.91146 -1.33589 1.6087 -9.00966 -1.36639 1.56655 -9.24395 -1.40331 1.58868 -9.33389 -1.33589 1.6087 -9.00966 -1.48285 1.94665 -9.18257 -1.36639 1.56655 -9.24395 -1.03403 1.54678 -9.42968 -1.3569 1.91967 -9.14108 -1.43675 1.97549 -9.10972 -1.6345 2.08521 -9.02936 -1.71481 2.14172 -9.01513 -1.43675 1.97549 -9.10972 -1.68551 2.05408 -9.3669 -1.6345 2.08521 -9.02936 -1.94715 1.88955 -9.04214 -1.34533 2.34402 -9.36912 -1.35589 2.33198 -9.4746 -1.42166 2.30434 -9.70375 -1.42463 2.32171 -9.79671 -1.35589 2.33198 -9.4746 -1.75562 2.49718 -9.52221 -1.42166 2.30434 -9.70375 -1.81977 2.24933 -9.85072 -1.36681 2.71985 -9.52812 -1.45595 2.73576 -9.58478 -1.55168 2.62083 -9.77246 -1.59919 2.58003 -9.84356 -1.45595 2.73576 -9.58478 -1.64262 3.03306 -9.56603 -1.55168 2.62083 -9.77246 -1.92319 2.56246 -9.71224 -1.53983 3.222 -9.49468 -1.46477 3.27764 -9.52087 -1.30899 3.39942 -9.6569 -1.23588 3.41353 -9.72163 -1.46477 3.27764 -9.52087 -1.29565 3.39092 -9.22238 -1.30899 3.39942 -9.6569 -1.08134 3.14296 -9.88719 -1.76811 3.63938 -9.46473 -1.80107 3.62793 -9.38311 -1.96669 3.53955 -9.23357 -1.97711 3.53353 -9.22356 -1.80107 3.62793 -9.38311 -1.91825 3.34522 -9.33028 -1.96669 3.53955 -9.23357 -1.94626 3.53693 -9.16689 -1.64196 0.511376 -8.40465 -1.55962 0.657535 -8.56085 -1.55914 1.08527 -8.77837 -1.57861 1.73812 -9.02395 -1.69954 1.9898 -9.15587 -1.77253 2.4943 -9.16571 -1.90747 3.10565 -9.18468 -2.11169 3.64726 -9.18678 -2.2416 4.04394 -9.1753 -2.286 4.60602 -9.14872 -2.36926 5.03319 -9.10264 -2.40976 5.29595 -9.09014 -1.55962 0.657535 -8.56085 -1.5236 0.617468 -8.63829 -1.41588 0.550729 -8.84211 -1.3973 0.54116 -8.86834 -1.5236 0.617468 -8.63829 -1.25199 0.741603 -8.69226 -1.41588 0.550729 -8.84211 -1.50947 0.760083 -9.15098 -1.55914 1.08527 -8.77837 -1.63846 1.13206 -8.77775 -1.6793 1.15547 -8.78138 -1.84585 1.24827 -8.80991 -1.93471 1.30738 -8.81646 -1.63846 1.13206 -8.77775 -1.68406 1.29393 -8.37481 -1.6793 1.15547 -8.78138 -1.70519 1.49211 -8.56893 -1.57861 1.73812 -9.02395 -1.55562 1.7923 -8.94641 -1.49587 1.94438 -8.77061 -1.44807 2.01006 -8.71469 -1.55562 1.7923 -8.94641 -1.41925 2.1901 -9.07101 -1.49587 1.94438 -8.77061 -1.36597 1.8845 -8.46089 -1.69954 1.9898 -9.15587 -1.67876 2.05164 -9.08659 -1.47977 2.12047 -8.97142 -1.40481 2.13761 -8.93345 -1.67876 2.05164 -9.08659 -1.67263 2.44148 -9.26531 -1.47977 2.12047 -8.97142 -1.30538 2.30293 -9.26854 -1.77253 2.4943 -9.16571 -1.82893 2.51413 -9.24538 -1.97519 2.57519 -9.4256 -2.01488 2.61885 -9.50102 -1.82893 2.51413 -9.24538 -1.60975 2.62139 -9.52857 -1.97519 2.57519 -9.4256 -2.11856 2.24256 -9.60002 -1.90747 3.10565 -9.18468 -1.87598 3.17812 -9.11113 -1.65819 3.24615 -9.03671 -1.57121 3.24384 -9.00116 -1.87598 3.17812 -9.11113 -1.55186 3.32955 -9.11686 -1.65819 3.24615 -9.03671 -1.55544 3.60164 -9.17114 -2.11169 3.64726 -9.18678 -2.07505 3.69665 -9.10575 -1.91541 3.82881 -8.98471 -1.84724 3.88165 -8.92632 -2.07505 3.69665 -9.10575 -1.97368 3.49741 -8.80552 -1.91541 3.82881 -8.98471 -1.9683 3.74755 -8.58706 -2.2416 4.04394 -9.1753 -2.26614 4.06499 -9.08889 -2.3322 4.11008 -8.86261 -2.3598 4.10535 -8.80569 -2.26614 4.06499 -9.08889 -2.46389 3.79253 -8.95121 -2.3322 4.11008 -8.86261 -2.44157 3.89427 -8.82243 -2.286 4.60602 -9.14872 -2.26971 4.6182 -9.09774 -1.50798 0.312629 -9.1679 -1.03809 0.387764 -9.32017 -0.624363 0.391518 -9.3895 -0.074705 0.479744 -9.34153 0.495942 0.56251 -9.32512 1.12996 0.599946 -9.30988 1.75659 0.628747 -9.29072 2.21575 0.694253 -9.28037 2.75152 0.663859 -9.2887 2.96137 0.685245 -9.29879 -1.03809 0.387764 -9.32017 -0.987771 0.409646 -9.22581 -0.907459 0.402619 -8.99975 -0.852564 0.403057 -8.90858 -0.987771 0.409646 -9.22581 -0.8361 0.720756 -9.19124 -0.907459 0.402619 -8.99975 -1.19359 0.714189 -8.77944 -0.624363 0.391518 -9.3895 -0.58805 0.315045 -9.44631 -0.534735 0.161275 -9.6227 -0.521942 0.102504 -9.70181 -0.58805 0.315045 -9.44631 -0.438547 0.414537 -9.71223 -0.534735 0.161275 -9.6227 -0.283912 0.292359 -9.91976 -0.074705 0.479744 -9.34153 -0.0189097 0.429636 -9.37896 0.0400589 0.19861 -9.35158 0.0600567 0.106108 -9.35225 -0.0189097 0.429636 -9.37896 -0.237649 0.207957 -9.64053 0.0400589 0.19861 -9.35158 0.275433 0.14613 -8.98452 0.495942 0.56251 -9.32512 0.523754 0.517722 -9.2593 0.67915 0.380913 -9.13791 0.760021 0.31332 -9.07454 0.523754 0.517722 -9.2593 0.19647 0.384367 -9.02408 0.67915 0.380913 -9.13791 0.615404 -0.00513499 -9.17796 1.12996 0.599946 -9.30988 1.19973 0.515583 -9.3232 1.32803 0.313033 -9.33388 1.40093 0.229729 -9.34119 1.19973 0.515583 -9.3232 0.974906 0.229655 -9.46181 1.32803 0.313033 -9.33388 1.63131 0.252465 -9.12147 1.75659 0.628747 -9.29072 1.77793 0.711203 -9.24828 1.88842 0.906504 -9.16314 1.90871 0.961196 -9.15771 1.77793 0.711203 -9.24828 2.07792 0.770477 -9.10271 1.88842 0.906504 -9.16314 2.09031 0.826366 -9.05955 2.21575 0.694253 -9.28037 2.27866 0.605419 -9.28276 2.31316 0.559733 -9.28336 2.27866 0.605419 -9.28276 2.31461 0.592413 -9.22063 -1.64891 0.671762 -9.86873 -1.59411 0.974801 -9.9276 -1.65308 1.52347 -10.0542 -1.45527 1.96859 -10.0023 -1.08437 2.38864 -9.96249 -0.792798 2.71197 -9.93495 -0.365387 3.08958 -9.92423 -0.23101 3.19086 -9.91258 -1.59411 0.974801 -9.9276 -1.5857 1.00902 -10.032 -1.57779 1.06148 -10.266 -1.57707 1.08038 -10.3731 -1.5857 1.00902 -10.032 -1.86309 1.04317 -10.3479 -1.57779 1.06148 -10.266 -1.65185 0.823161 -10.559 -1.65308 1.52347 -10.0542 -1.70558 1.564 -9.99098 -1.87023 1.69814 -9.87919 -1.93871 1.78079 -9.87823 -1.70558 1.564 -9.99098 -1.96739 1.33438 -9.80416 -1.87023 