<?xml version="1.0"?><VTKFile type="PolyData" version="0.1" byte_order="LittleEndian">
<PolyData>
<Piece NumberOfLines="91" NumberOfPoints="763">
<PointData Scalars=" PointData">
<DataArray type="Float32" Name="time" NumberOfComponents="1" format="ascii" >
0 0.113636 0.227273 0.340909 0.363636 0.477273 0.590909 0.704545 0.818182 0.909091 1.02273 1.13636 1.25 1.36364 1.45455 1.56818 1.68182 1.79545 1.90909 2 2.11364 2.22727 2.34091 2.45455 2.54545 2.65909 2.77273 2.88636 3 3.09091 3.20455 3.31818 3.43182 3.54545 3.63636 3.75 3.86364 3.97727 4.09091 4.18182 4.29545 4.40909 4.52273 4.63636 4.72727 4.84091 4.95455 5.06818 5.18182 5.27273 5.38636 5.5 5.61364 5.72727 5.81818 5.93182 6.04545 6.15909 6.27273 6.36364 6.47727 6.59091 6.70455 6.81818 6.90909 7.02273 7.13636 7.25 7.36364 7.45455 7.56818 7.68182 7.79545 7.90909 8 8.11364 8.22727 8.34091 8.45455 8.54545 8.65909 8.77273 8.88636 9 9.09091 9.20455 9.31818 9.43182 9.54545 9.63636 9.75 9.86364 9.97727 10.0909 10.1818 10.2955 10.4091 10.5227 10.6364 10.7273 10.8409 10.9545 11.0682 11.1818 11.2727 11.3864 11.5 11.6136 11.7273 11.8182 11.9318 12.0455 12.1591 12.2727 12.3636 12.4773 12.5909 12.7045 12.8182 12.9091 13.0227 13.1364 13.25 13.3636 13.4545 13.5682 13.6818 13.7955 13.9091 14 14.1136 14.2273 14.3409 14.4545 14.5455 14.6591 14.7727 14.8864 15 0.636364 1.26136 1.88636 2.51136 2.63636 3.26136 3.88636 4.51136 5.13636 5.76136 6.38636 7.01136 7.63636 8.26136 8.88636 9.51136 10.1364 10.7614 11.3864 12.0114 12.6364 13.2614 13.8864 14.5114 15 3.38636 4.63636 5.88636 7.13636 7.38636 5.88636 7.13636 8.38636 9.63636 9.88636 8.38636 9.63636 10.8864 12.1364 12.3864 10.8864 12.1364 13.3864 14.6364 14.8864 13.3864 14.6364 15 1.18182 1.80682 2.43182 3.05682 3.18182 3.80682 4.43182 5.05682 5.68182 6.30682 6.93182 7.55682 8.18182 8.80682 9.43182 10.0568 10.6818 11.3068 11.9318 12.5568 13.1818 13.8068 14.4318 15 3.93182 5.18182 6.43182 7.68182 7.93182 6.43182 7.68182 8.93182 10.1818 10.4318 8.93182 10.1818 11.4318 12.6818 12.9318 11.4318 12.6818 13.9318 15 13.9318 15 1.72727 2.35227 2.97727 3.60227 3.72727 4.35227 4.97727 5.60227 6.22727 6.85227 7.47727 8.10227 8.72727 9.35227 9.97727 10.6023 11.2273 11.8523 12.4773 13.1023 13.7273 14.3523 14.9773 15 4.47727 5.72727 6.97727 8.22727 8.47727 6.97727 8.22727 9.47727 10.7273 10.9773 9.47727 10.7273 11.9773 13.2273 13.4773 11.9773 13.2273 14.4773 15 14.4773 15 2.27273 2.89773 3.52273 4.14773 4.27273 4.89773 5.52273 6.14773 6.77273 7.39773 8.02273 8.64773 9.27273 9.89773 10.5227 11.1477 11.7727 12.3977 13.0227 13.6477 14.2727 14.8977 15 5.02273 6.27273 7.52273 8.77273 9.02273 7.52273 8.77273 10.0227 11.2727 11.5227 10.0227 11.2727 12.5227 13.7727 14.0227 12.5227 13.7727 15 2.81818 3.44318 4.06818 4.69318 4.81818 5.44318 6.06818 6.69318 7.31818 7.94318 8.56818 9.19318 9.81818 10.4432 11.0682 11.6932 12.3182 12.9432 13.5682 14.1932 14.8182 15 5.56818 6.81818 8.06818 9.31818 9.56818 8.06818 9.31818 10.5682 11.8182 12.0682 10.5682 11.8182 13.0682 14.3182 14.5682 13.0682 14.3182 15 3.36364 3.98864 4.61364 5.23864 5.36364 5.98864 6.61364 7.23864 7.86364 8.48864 9.11364 9.73864 10.3636 10.9886 11.6136 12.2386 12.8636 13.4886 14.1136 14.7386 15 6.11364 7.36364 8.61364 9.86364 10 8.61364 9.86364 11.1136 12.3636 12.6136 11.1136 12.3636 13.6136 14.8636 15 13.6136 14.8636 15 3.90909 4.53409 5.15909 5.78409 5.90909 6.53409 7.15909 7.78409 8.40909 9.03409 9.65909 10.2841 10.9091 11.5341 12.1591 12.7841 13.4091 14.0341 14.6591 15 6.65909 7.90909 9.15909 10.4091 10.6591 9.15909 10.4091 11.6591 12.9091 13.1591 11.6591 12.9091 14.1591 15 14.1591 15 4.45455 5.07955 5.70455 6.32955 6.45455 7.07955 7.70455 8.32955 8.95455 9.57955 10.2045 10.8295 11.4545 12.0795 12.7045 13.3295 13.9545 14.5795 15 7.20455 8.45455 9.70455 10.9545 11.2045 9.70455 10.9545 12.2045 13.4545 13.7045 12.2045 13.4545 14.7045 15 14.7045 15 5 5.625 6.25 6.875 7 7.625 8.25 8.875 9.5 10.125 10.75 11.375 12 12.625 13.25 13.875 14.5 15 7.75 9 10.25 11.5 11.75 10.25 11.5 12.75 14 14.25 12.75 14 15 5.54545 6.17045 6.79545 7.42045 7.54545 8.17045 8.79545 9.42045 10.0455 10.6705 11.2955 11.9205 12.5455 13.1705 13.7955 14.4205 15 8.29545 9.54545 10.7955 12.0455 12.2955 10.7955 12.0455 13.2955 14.5455 14.7955 13.2955 14.5455 15 6.09091 6.71591 7.34091 7.96591 8.09091 8.71591 9.34091 9.96591 10.5909 11.2159 11.8409 12.4659 13.0909 13.7159 14.3409 14.9659 15 8.84091 10.0909 11.3409 12.5909 12.8409 11.3409 12.5909 13.8409 15 13.8409 15 6.63636 7.26136 7.88636 8.51136 8.63636 9.26136 9.88636 10.5114 11.1364 11.7614 12.3864 13.0114 13.6364 14.2614 14.8864 15 9.38636 10.6364 11.8864 13.1364 13.3864 11.8864 13.1364 14.3864 15 14.3864 15 7.18182 7.80682 8.43182 9.05682 9.18182 9.80682 10.4318 11.0568 11.6818 12.3068 12.9318 13.5568 14.1818 14.8068 15 9.93182 11.1818 12.4318 13.6818 13.9318 12.4318 13.6818 14.9318 15 14.9318 15 7.72727 8.35227 8.97727 9.60227 9.72727 10.3523 10.9773 11.6023 12.2273 12.8523 13.4773 14.1023 14.7273 15 10.4773 11.7273 12.9773 14.2273 14.4773 12.9773 14.2273 15 8.27273 8.89773 9.52273 10.1477 10.2727 10.8977 11.5227 12.1477 12.7727 13.3977 14.0227 14.6477 15 11.0227 12.2727 13.5227 14.7727 15 13.5227 14.7727 15 8.81818 9.44318 10.0682 10.6932 10.8182 11.4432 12.0682 12.6932 13.3182 13.9432 14.5682 15 11.5682 12.8182 14.0682 15 14.0682 15 9.36364 9.98864 10.6136 11.2386 11.3636 11.9886 12.6136 13.2386 13.8636 14.4886 15 12.1136 13.3636 14.6136 15 14.6136 15 9.90909 10.5341 11.1591 11.7841 11.9091 12.5341 13.1591 13.7841 14.4091 15 12.6591 13.9091 15 10.4545 11.0795 11.7045 12.3295 12.4545 13.0795 13.7045 14.3295 14.9545 15 13.2045 14.4545 15 11 11.625 12.25 12.875 13 13.625 14.25 14.875 15 13.75 15 11.5455 12.1705 12.7955 13.4205 13.5455 14.1705 14.7955 15 14.2955 15 12.0909 12.7159 13.3409 13.9659 14.0909 14.7159 15 14.8409 15 12.6364 13.2614 13.8864 14.5114 14.6364 15 13.1818 13.8068 14.4318 15 13.7273 14.3523 14.9773 15 14.2727 14.8977 15 14.8182 15 
</DataArray>

</PointData>
<CellData Scalars=" CellData">
<DataArray type="Float32" Name="radius" NumberOfComponents="1" format="ascii" >
0.05 0.03 0.02 0.02 0.02 0.02 0.02 0.03 0.02 0.02 0.02 0.02 0.02 0.03 0.02 0.02 0.02 0.02 0.02 0.03 0.02 0.02 0.02 0.02 0.03 0.02 0.02 0.02 0.02 0.03 0.02 0.02 0.02 0.02 0.03 0.02 0.02 0.02 0.02 0.03 0.02 0.02 0.02 0.02 0.03 0.02 0.02 0.02 0.03 0.02 0.02 0.02 0.03 0.02 0.02 0.02 0.03 0.02 0.02 0.02 0.03 0.02 0.02 0.02 0.03 0.02 0.02 0.03 0.02 0.02 0.03 0.02 0.02 0.03 0.02 0.02 0.03 0.02 0.03 0.02 0.03 0.02 0.03 0.02 0.03 0.02 0.03 0.03 0.03 0.03 0.03 
</DataArray>
<DataArray type="Float32" Name="subType" NumberOfComponents="1" format="ascii" >
1 2 3 3 3 3 3 2 3 3 3 3 3 2 3 3 3 3 3 2 3 3 3 3 2 3 3 3 3 2 3 3 3 3 2 3 3 3 3 2 3 3 3 3 2 3 3 3 2 3 3 3 2 3 3 3 2 3 3 3 2 3 3 3 2 3 3 2 3 3 2 3 3 2 3 3 2 3 2 3 2 3 2 3 2 3 2 2 2 2 2 
</DataArray>
<DataArray type="Float32" Name="creationTime" NumberOfComponents="1" format="ascii" >
0 0.636364 3.38636 5.88636 8.38636 10.8864 13.3864 1.18182 3.93182 6.43182 8.93182 11.4318 13.9318 1.72727 4.47727 6.97727 9.47727 11.9773 14.4773 2.27273 5.02273 7.52273 10.0227 12.5227 2.81818 5.56818 8.06818 10.5682 13.0682 3.36364 6.11364 8.61364 11.1136 13.6136 3.90909 6.65909 9.15909 11.6591 14.1591 4.45455 7.20455 9.70455 12.2045 14.7045 5 7.75 10.25 12.75 5.54545 8.29545 10.7955 13.2955 6.09091 8.84091 11.3409 13.8409 6.63636 9.38636 11.8864 14.3864 7.18182 9.93182 12.4318 14.9318 7.72727 10.4773 12.9773 8.27273 11.0227 13.5227 8.81818 11.5682 14.0682 9.36364 12.1136 14.6136 9.90909 12.6591 10.4545 13.2045 11 13.75 11.5455 14.2955 12.0909 14.8409 12.6364 13.1818 13.7273 14.2727 14.8182 
</DataArray>

</CellData>
<Points>
<DataArray type="Float32" Name="Coordinates" NumberOfComponents="3" format="ascii" >
0 0 -3 0 0 -3.25 0 0 -3.5 0 0 -3.75 0 0 -3.8 0 0 -4.05 0 0 -4.3 0 0 -4.55 0 0 -4.8 0 0 -5 0 0 -5.25 0 0 -5.5 0 0 -5.75 0 0 -6 0 0 -6.2 0 0 -6.45 0 0 -6.7 0 0 -6.95 0 0 -7.2 0 0 -7.4 0 0 -7.65 0 0 -7.9 0 0 -8.15 0 0 -8.4 0 0 -8.6 0 0 -8.85 0 0 -9.1 0 0 -9.35 0 0 -9.6 0 0 -9.8 0 0 -10.05 0 0 -10.3 0 0 -10.55 0 0 -10.8 0 0 -11 0 0 -11.25 0 0 -11.5 0 0 -11.75 0 0 -12 0 0 -12.2 0 0 -12.45 0 0 -12.7 0 0 -12.95 0 0 -13.2 0 0 -13.4 0 0 -13.65 0 0 -13.9 0 0 -14.15 0 0 -14.4 0 0 -14.6 0 0 -14.85 0 0 -15.1 0 0 -15.35 0 0 -15.6 0 0 -15.8 0 0 -16.05 0 0 -16.3 0 0 -16.55 0 0 -16.8 0 0 -17 0 0 -17.25 0 0 -17.5 0 0 -17.75 0 0 -18 0 0 -18.2 0 0 -18.45 0 0 -18.7 0 0 -18.95 0 0 -19.2 0 0 -19.4 0 0 -19.65 0 0 -19.9 0 0 -20.15 0 0 -20.4 0 0 -20.6 0 0 -20.85 0 0 -21.1 0 0 -21.35 0 0 -21.6 0 0 -21.8 0 0 -22.05 0 0 -22.3 0 0 -22.55 0 0 -22.8 0 0 -23 0 0 -23.25 0 0 -23.5 0 0 -23.75 0 0 -24 0 0 -24.2 0 0 -24.45 0 0 -24.7 0 0 -24.95 0 0 -25.2 0 0 -25.4 0 0 -25.65 0 0 -25.9 0 0 -26.15 0 0 -26.4 0 0 -26.6 0 0 -26.85 0 0 -27.1 0 0 -27.35 0 0 -27.6 0 0 -27.8 0 0 -28.05 0 0 -28.3 0 0 -28.55 0 0 -28.8 0 0 -29 0 0 -29.25 0 0 -29.5 0 0 -29.75 0 0 -30 0 0 -30.2 0 0 -30.45 0 0 -30.7 0 0 -30.95 0 0 -31.2 0 0 -31.4 0 0 -31.65 0 0 -31.9 0 0 -32.15 0 0 -32.4 0 0 -32.6 0 0 -32.85 0 0 -33.1 0 0 -33.35 0 0 -33.6 0 0 -33.8 0 0 -34.05 0 0 -34.3 0 0 -34.55 0 0 -34.8 0 0 -35 0 0 -35.25 0 0 -35.5 0 0 -35.75 0 0 -36 0 0 -3.8 -0.231471 -0.0267338 -3.89059 -0.462942 -0.0534675 -3.98118 -0.694413 -0.0802013 -4.07177 -0.740707 -0.085548 -4.08989 -0.972179 -0.112282 -4.18048 -1.20365 -0.139016 -4.27107 -1.43512 -0.165749 -4.36165 -1.66659 -0.192483 -4.45224 -1.89806 -0.219217 -4.54283 -2.12953 -0.245951 -4.63342 -2.361 -0.272684 -4.72401 -2.59248 -0.299418 -4.8146 -2.82395 -0.326152 -4.90519 -3.05542 -0.352886 -4.99578 -3.28689 -0.379619 -5.08637 -3.51836 -0.406353 -5.17696 -3.74983 -0.433087 -5.26755 -3.9813 -0.459821 -5.35814 -4.21277 -0.486554 -5.44873 -4.44424 -0.513288 -5.53932 -4.67572 -0.540022 -5.62991 -4.90719 -0.566756 -5.7205 -5.13866 -0.59349 -5.81109 -5.31963 -0.61439 -5.88191 -0.740707 -0.085548 -4.08989 -0.92455 0.00716168 -3.94809 -1.10839 0.0998714 -3.80629 -1.29223 0.192581 -3.66449 -1.329 0.211123 -3.63613 -1.66659 -0.192483 -4.45224 -1.74715 -0.427791 -4.47756 -1.8277 -0.6631 -4.50288 -1.90825 -0.898408 -4.5282 -1.92436 -0.94547 -4.53326 -2.59248 -0.299418 -4.8146 -2.71998 -0.0876351 -4.8519 -2.84748 0.124148 -4.8892 -2.97498 0.335931 -4.9265 -3.00048 0.378288 -4.93396 -3.51836 -0.406353 -5.17696 -3.57966 -0.636484 -5.253 -3.64096 -0.866615 -5.32904 -3.70227 -1.09675 -5.40508 -3.71453 -1.14277 -5.42028 -4.44424 -0.513288 -5.53932 -4.61881 -0.581303 -5.37379 -4.66959 -0.601089 -5.32563 0 0 -5 -0.105798 0.207606 -5.09059 -0.211595 0.415213 -5.18118 -0.317393 0.622819 -5.27177 -0.338552 0.664341 -5.28989 -0.44435 0.871947 -5.38048 -0.550147 1.07955 -5.47107 -0.655945 1.28716 -5.56165 -0.761742 1.49477 -5.65224 -0.86754 1.70237 -5.74283 -0.973337 1.90998 -5.83342 -1.07913 2.11759 -5.92401 -1.18493 2.32519 -6.0146 -1.29073 2.5328 -6.10519 -1.39653 2.74041 -6.19578 -1.50232 2.94801 -6.28637 -1.60812 3.15562 -6.37696 -1.71392 3.36322 -6.46755 -1.81972 3.57083 -6.55814 -1.92552 3.77844 -6.64873 -2.03131 3.98604 -6.73932 -2.13711 4.19365 -6.82991 -2.24291 4.40126 -6.9205 -2.33909 4.58999 -7.00285 -0.338552 0.664341 -5.28989 -0.199533 0.796321 -5.45037 -0.0605131 0.928302 -5.61085 0.0785064 1.06028 -5.77133 0.10631 1.08668 -5.80343 -0.761742 1.49477 -5.65224 -1.01149 1.50228 -5.64394 -1.26124 1.50979 -5.63565 -1.51099 1.5173 -5.62735 -1.56094 1.5188 -5.62569 -1.18493 2.32519 -6.0146 -1.02937 2.4887 -6.12214 -0.873811 2.65222 -6.22968 -0.718251 2.81573 -6.33722 -0.687139 2.84843 -6.35873 -1.60812 3.15562 -6.37696 -1.45034 3.3339 -6.45325 -1.29255 3.51218 -6.52954 -1.15772 3.66453 -6.59474 -2.03131 3.98604 -6.73932 -2.11726 4.11751 -6.59451 0 0 -6.2 0.068906 0.222588 -6.29059 0.137812 0.445176 -6.38118 0.206718 0.667765 -6.47177 0.220499 0.712282 -6.48989 0.289405 0.934871 -6.58048 0.358311 1.15746 -6.67107 0.427217 1.38005 -6.76165 0.496123 1.60264 -6.85224 0.565029 1.82522 -6.94283 0.633935 2.04781 -7.03342 0.702841 2.2704 -7.12401 0.771747 2.49299 -7.2146 0.840653 2.71558 -7.30519 0.909559 2.93816 -7.39578 0.978465 3.16075 -7.48637 1.04737 3.38334 -7.57696 1.11628 3.60593 -7.66755 1.18518 3.82852 -7.75814 1.25409 4.05111 -7.84873 1.32299 4.27369 -7.93932 1.3919 4.49628 -8.02991 1.46081 4.71887 -8.1205 1.46331 4.72696 -8.12379 0.220499 0.712282 -6.48989 0.0503703 0.894585 -6.47194 -0.119759 1.07689 -6.454 -0.289887 1.25919 -6.43606 -0.323913 1.29565 -6.43247 0.496123 1.60264 -6.85224 0.432333 1.64809 -7.08966 0.368543 1.69355 -7.32707 0.304753 1.73901 -7.56448 0.291995 1.7481 -7.61196 0.771747 2.49299 -7.2146 0.799006 2.67552 -7.04596 0.826266 2.85805 -6.87732 0.853525 3.04058 -6.70868 0.858977 3.07708 -6.67495 1.04737 3.38334 -7.57696 1.03549 3.57467 -7.41648 1.02361 3.76599 -7.256 1.01864 3.846 -7.18889 1.32299 4.27369 -7.93932 1.39871 4.32287 -7.8866 0 0 -7.4 0.230203 -0.0360572 -7.49059 0.460406 -0.0721143 -7.58118 0.690609 -0.108171 -7.67177 0.73665 -0.115383 -7.68989 0.966853 -0.15144 -7.78048 1.19706 -0.187497 -7.87107 1.42726 -0.223554 -7.96165 1.65746 -0.259611 -8.05224 1.88766 -0.295669 -8.14283 2.11787 -0.331726 -8.23342 2.34807 -0.367783 -8.32401 2.57827 -0.40384 -8.4146 2.80848 -0.439897 -8.50519 3.03868 -0.475954 -8.59578 3.26888 -0.512012 -8.68637 3.49909 -0.548069 -8.77696 3.72929 -0.584126 -8.86755 3.95949 -0.620183 -8.95814 4.1897 -0.65624 -9.04873 4.4199 -0.692297 -9.13932 4.6501 -0.728354 -9.22991 4.68777 -0.734255 -9.24473 0.73665 -0.115383 -7.68989 0.76984 -0.0549445 -7.93019 0.80303 0.00549385 -8.17049 0.83622 0.0659322 -8.4108 0.842858 0.0780199 -8.45886 1.65746 -0.259611 -8.05224 1.84532 -0.184718 -7.90527 2.03317 -0.109824 -7.7583 2.22103 -0.0349304 -7.61132 2.2586 -0.0199517 -7.58193 2.57827 -0.40384 -8.4146 2.7633 -0.29107 -8.2899 2.94832 -0.178299 -8.16521 3.13334 -0.0655285 -8.04051 3.17034 -0.0429744 -8.01557 3.49909 -0.548069 -8.77696 3.67389 -0.60921 -8.60901 3.84551 -0.669239 -8.44412 0 0 -8.6 0.129535 -0.193686 -8.69059 0.259071 -0.387372 -8.78118 0.388606 -0.581057 -8.87177 0.414513 -0.619794 -8.88989 0.544048 -0.81348 -8.98048 0.673583 -1.00717 -9.07107 0.803119 -1.20085 -9.16165 0.932654 -1.39454 -9.25224 1.06219 -1.58822 -9.34283 1.19172 -1.78191 -9.43342 1.32126 -1.97559 -9.52401 1.45079 -2.16928 -9.6146 1.58033 -2.36297 -9.70519 1.70987 -2.55665 -9.79578 1.8394 -2.75034 -9.88637 1.96894 -2.94402 -9.97696 2.09847 -3.13771 -10.0675 2.22801 -3.3314 -10.1581 2.35754 -3.52508 -10.2487 2.48708 -3.71877 -10.3393 2.52476 -3.77511 -10.3657 0.414513 -0.619794 -8.88989 0.571791 -0.730044 -8.72986 0.729069 -0.840294 -8.56983 0.886348 -0.950543 -8.40981 0.917803 -0.972593 -8.3778 0.932654 -1.39454 -9.25224 0.94626 -1.59537 -9.10398 0.959866 -1.7962 -8.95572 0.973472 -1.99704 -8.80746 0.976193 -2.0372 -8.77781 1.45079 -2.16928 -9.6146 1.68739 -2.12126 -9.67954 1.92398 -2.07325 -9.74448 2.16058 -2.02523 -9.80943 2.2079 -2.01563 -9.82241 1.96894 -2.94402 -9.97696 2.09245 -2.90224 -10.1903 2.15982 -2.87945 -10.3066 0 0 -9.8 -0.0397026 -0.229602 -9.89059 -0.0794053 -0.459205 -9.98118 -0.119108 -0.688807 -10.0718 -0.127048 -0.734728 -10.0899 -0.166751 -0.96433 -10.1805 -0.206454 -1.19393 -10.2711 -0.246156 -1.42353 -10.3617 -0.285859 -1.65314 -10.4522 -0.325562 -1.88274 -10.5428 -0.365264 -2.11234 -10.6334 -0.404967 -2.34194 -10.724 -0.44467 -2.57155 -10.8146 -0.484372 -2.80115 -10.9052 -0.524075 -3.03075 -10.9958 -0.563777 -3.26035 -11.0864 -0.60348 -3.48996 -11.177 -0.643183 -3.71956 -11.2675 -0.682885 -3.94916 -11.3581 -0.722588 -4.17876 -11.4487 -0.739191 -4.27478 -11.4866 -0.127048 -0.734728 -10.0899 0.0763389 -0.858251 -10.1665 0.279726 -0.981775 -10.2432 0.483114 -1.1053 -10.3198 0.505301 -1.11877 -10.3282 -0.285859 -1.65314 -10.4522 -0.0957912 -1.81384 -10.4288 0.0942767 -1.97454 -10.4054 0.284344 -2.13525 -10.382 0.322358 -2.16739 -10.3773 -0.44467 -2.57155 -10.8146 -0.664981 -2.60766 -10.9271 -0.885292 -2.64377 -11.0396 -1.1056 -2.67987 -11.1521 -1.12964 -2.68381 -11.1644 -0.60348 -3.48996 -11.177 -0.783967 -3.50953 -11.3488 -0.803656 -3.51167 -11.3676 0 0 -11 -0.216458 -0.0862525 -11.0906 -0.432916 -0.172505 -11.1812 -0.649374 -0.258757 -11.2718 -0.692666 -0.276008 -11.2899 -0.909124 -0.36226 -11.3805 -1.12558 -0.448513 -11.4711 -1.34204 -0.534765 -11.5617 -1.5585 -0.621018 -11.6522 -1.77496 -0.70727 -11.7428 -1.99141 -0.793523 -11.8334 -2.20787 -0.879775 -11.924 -2.42433 -0.966028 -12.0146 -2.64079 -1.05228 -12.1052 -2.85725 -1.13853 -12.1958 -3.0737 -1.22479 -12.2864 -3.29016 -1.31104 -12.377 -3.50662 -1.39729 -12.4675 -3.72308 -1.48354 -12.5581 -3.84115 -1.53059 -12.6076 -0.692666 -0.276008 -11.2899 -0.749673 -0.511862 -11.2297 -0.806681 -0.747716 -11.1695 -0.863689 -0.98357 -11.1093 -0.875091 -1.03074 -11.0973 -1.5585 -0.621018 -11.6522 -1.57634 -0.86946 -11.6737 -1.59418 -1.1179 -11.6951 -1.61203 -1.36634 -11.7165 -1.61559 -1.41603 -11.7207 -2.42433 -0.966028 -12.0146 -2.61388 -0.976868 -11.852 -2.80343 -0.987708 -11.6893 -2.93094 -0.995001 -11.5799 -3.29016 -1.31104 -12.377 -3.28127 -1.3901 -12.5251 0 0 -12.2 -0.225642 -0.0581325 -12.2906 -0.451283 -0.116265 -12.3812 -0.676925 -0.174398 -12.4718 -0.722053 -0.186024 -12.4899 -0.947695 -0.244157 -12.5805 -1.17334 -0.302289 -12.6711 -1.39898 -0.360422 -12.7617 -1.62462 -0.418554 -12.8522 -1.85026 -0.476687 -12.9428 -2.0759 -0.534819 -13.0334 -2.30155 -0.592952 -13.124 -2.52719 -0.651084 -13.2146 -2.75283 -0.709217 -13.3052 -2.97847 -0.767349 -13.3958 -3.20411 -0.825482 -13.4864 -3.42975 -0.883614 -13.577 -3.6554 -0.941747 -13.6675 -3.80719 -0.980854 -13.7285 -0.722053 -0.186024 -12.4899 -0.728423 -0.375181 -12.6532 -0.734794 -0.564338 -12.8166 -0.741164 -0.753495 -12.9799 -0.742438 -0.791327 -13.0126 -1.62462 -0.418554 -12.8522 -1.77966 -0.533179 -12.6931 -1.93469 -0.647804 -12.534 -2.08973 -0.762429 -12.3748 -2.12074 -0.785354 -12.343 -2.52719 -0.651084 -13.2146 -2.6602 -0.460304 -13.3063 -2.79321 -0.269523 -13.398 -2.82464 -0.22443 -13.4197 -3.42975 -0.883614 -13.577 -3.4663 -0.910955 -13.5394 0 0 -13.4 0.224544 0.0622373 -13.4906 0.449088 0.124475 -13.5812 0.673632 0.186712 -13.6718 0.718541 0.199159 -13.6899 0.943085 0.261397 -13.7805 1.16763 0.323634 -13.8711 1.39217 0.385871 -13.9617 1.61672 0.448109 -14.0522 1.84126 0.510346 -14.1428 2.06581 0.572583 -14.2334 2.29035 0.634821 -14.324 2.51489 0.697058 -14.4146 2.73944 0.759295 -14.5052 2.96398 0.821532 -14.5958 3.18853 0.88377 -14.6864 3.41307 0.946007 -14.777 3.59271 0.995797 -14.8494 0.718541 0.199159 -13.6899 0.838883 0.0196264 -13.8155 0.959225 -0.159907 -13.9412 1.07957 -0.33944 -14.0668 1.10363 -0.375346 -14.0919 1.61672 0.448109 -14.0522 1.65808 0.388255 -14.2914 1.69945 0.3284 -14.5306 1.74081 0.268546 -14.7698 1.74909 0.256576 -14.8176 2.51489 0.697058 -14.4146 2.65942 0.506643 -14.4878 2.77503 0.354311 -14.5463 0 0 -14.6 0.2034 0.113674 -14.6906 0.406801 0.227348 -14.7812 0.610201 0.341022 -14.8718 0.650882 0.363757 -14.8899 0.854282 0.477431 -14.9805 1.05768 0.591105 -15.0711 1.26108 0.704779 -15.1617 1.46448 0.818453 -15.2522 1.66788 0.932127 -15.3428 1.87128 1.0458 -15.4334 2.07468 1.15948 -15.524 2.27809 1.27315 -15.6146 2.48149 1.38682 -15.7052 2.68489 1.5005 -15.7958 2.88829 1.61417 -15.8864 3.07689 1.71958 -15.9704 0.650882 0.363757 -14.8899 0.768408 0.518423 -14.7325 0.885934 0.673089 -14.5751 1.00346 0.827755 -14.4178 1.02697 0.858688 -14.3863 1.46448 0.818453 -15.2522 1.64237 0.872811 -15.0852 1.82026 0.927168 -14.9182 1.99815 0.981526 -14.7511 2.03373 0.992397 -14.7177 2.27809 1.27315 -15.6146 2.25695 1.51912 -15.654 2.24927 1.60857 -15.6683 0 0 -15.8 -0.232765 -0.0106678 -15.8906 -0.465531 -0.0213357 -15.9812 -0.698296 -0.0320035 -16.0718 -0.744849 -0.0341371 -16.0899 -0.977615 -0.0448049 -16.1805 -1.21038 -0.0554728 -16.2711 -1.44315 -0.0661406 -16.3617 -1.67591 -0.0768085 -16.4522 -1.90868 -0.0874763 -16.5428 -2.14144 -0.0981441 -16.6334 -2.37421 -0.108812 -16.724 -2.60697 -0.11948 -16.8146 -2.83974 -0.130148 -16.9052 -3.0725 -0.140815 -16.9958 -3.30527 -0.151483 -17.0864 -3.31797 -0.152065 -17.0913 -0.744849 -0.0341371 -16.0899 -0.766059 -0.0149123 -16.3382 -0.787268 0.00431247 -16.5866 -0.808478 0.0235373 -16.835 -0.81272 0.0273822 -16.8846 -1.67591 -0.0768085 -16.4522 -1.70701 0.0129416 -16.6835 -1.73811 0.102692 -16.9147 -1.76694 0.185914 -17.1292 -2.60697 -0.11948 -16.8146 -2.6678 -0.320176 -16.9134 0 0 -17 0.150875 -0.177568 -17.0906 0.30175 -0.355136 -17.1812 0.452625 -0.532703 -17.2718 0.4828 -0.568217 -17.2899 0.633674 -0.745785 -17.3805 0.784549 -0.923353 -17.4711 0.935424 -1.10092 -17.5617 1.0863 -1.27849 -17.6522 1.23717 -1.45606 -17.7428 1.38805 -1.63362 -17.8334 1.53892 -1.81119 -17.924 1.6898 -1.98876 -18.0146 1.84067 -2.16633 -18.1052 1.99155 -2.3439 -18.1958 2.01898 -2.37618 -18.2123 0.4828 -0.568217 -17.2899 0.469652 -0.606912 -17.5365 0.456505 -0.645607 -17.7832 0.443358 -0.684303 -18.0298 0.440728 -0.692042 -18.0791 1.0863 -1.27849 -17.6522 1.22995 -1.2112 -17.8455 1.37361 -1.14392 -18.0387 1.44413 -1.11088 -18.1336 1.6898 -1.98876 -18.0146 1.69537 -1.9969 -18.1369 0 0 -18.2 -0.232452 -0.016107 -18.2906 -0.464905 -0.032214 -18.3812 -0.697357 -0.048321 -18.4718 -0.743848 -0.0515424 -18.4899 -0.9763 -0.0676494 -18.5805 -1.20875 -0.0837565 -18.6711 -1.4412 -0.0998635 -18.7617 -1.67366 -0.11597 -18.8522 -1.90611 -0.132077 -18.9428 -2.13856 -0.148184 -19.0334 -2.37101 -0.164292 -19.124 -2.60347 -0.180399 -19.2146 -2.83592 -0.196506 -19.3052 -2.90777 -0.201484 -19.3332 -0.743848 -0.0515424 -18.4899 -0.916666 0.0846843 -18.3712 -1.08948 0.220911 -18.2526 -1.2623 0.357138 -18.134 -1.29687 0.384383 -18.1102 -1.67366 -0.11597 -18.8522 -1.71691 -0.306737 -19.0079 -1.76016 -0.497504 -19.1636 -1.76252 -0.507909 -19.1721 -2.60347 -0.180399 -19.2146 -2.61048 -0.168716 -19.2151 0 0 -19.4 -0.119134 -0.200251 -19.4906 -0.238268 -0.400503 -19.5812 -0.357402 -0.600754 -19.6718 -0.381229 -0.640804 -19.6899 -0.500363 -0.841056 -19.7805 -0.619497 -1.04131 -19.8711 -0.738632 -1.24156 -19.9617 -0.857766 -1.44181 -20.0522 -0.9769 -1.64206 -20.1428 -1.09603 -1.84231 -20.2334 -1.21517 -2.04256 -20.324 -1.3343 -2.24282 -20.4146 -1.38629 -2.3302 -20.4541 -0.381229 -0.640804 -19.6899 -0.371523 -0.846613 -19.5483 -0.361817 -1.05242 -19.4067 -0.352111 -1.25823 -19.2651 -0.35017 -1.29939 -19.2368 -0.857766 -1.44181 -20.0522 -0.77194 -1.66365 -19.9753 -0.718884 -1.80079 -19.9277 0 0 -20.6 0.0769822 -0.219926 -20.6906 0.153964 -0.439851 -20.7812 0.230947 -0.659777 -20.8718 0.246343 -0.703762 -20.8899 0.323325 -0.923688 -20.9805 0.400308 -1.14361 -21.0711 0.47729 -1.36354 -21.1617 0.554272 -1.58346 -21.2522 0.631254 -1.80339 -21.3428 0.708236 -2.02332 -21.4334 0.785219 -2.24324 -21.524 0.828609 -2.3672 -21.5751 0.246343 -0.703762 -20.8899 0.342386 -0.698905 -21.1207 0.438429 -0.694047 -21.3514 0.534472 -0.68919 -21.5822 0.551934 -0.688307 -21.6241 0.554272 -1.58346 -21.2522 0.454525 -1.6521 -21.471 0.43639 -1.66458 -21.5107 0 0 -21.8 0.0933782 -0.213481 -21.8906 0.186756 -0.426962 -21.9812 0.280135 -0.640442 -22.0718 0.29881 -0.683139 -22.0899 0.392189 -0.896619 -22.1805 0.485567 -1.1101 -22.2711 0.578945 -1.32358 -22.3617 0.672323 -1.53706 -22.4522 0.765701 -1.75054 -22.5428 0.85908 -1.96402 -22.6334 0.923595 -2.11152 -22.696 0.29881 -0.683139 -22.0899 0.545684 -0.713414 -22.0647 0.792558 -0.74369 -22.0394 0.976591 -0.766259 -22.0206 0.672323 -1.53706 -22.4522 0.671841 -1.55359 -22.6379 0 0 -23 -0.218298 -0.0814837 -23.0906 -0.436596 -0.162967 -23.1812 -0.654894 -0.244451 -23.2718 -0.698553 -0.260748 -23.2899 -0.916851 -0.342232 -23.3805 -1.13515 -0.423715 -23.4711 -1.35345 -0.505199 -23.5617 -1.57174 -0.586683 -23.6522 -1.79004 -0.668167 -23.7428 -1.96865 -0.734835 -23.817 -0.698553 -0.260748 -23.2899 -0.759986 -0.495818 -23.231 -0.821418 -0.730888 -23.1721 -0.840407 -0.803546 -23.1539 -1.57174 -0.586683 -23.6522 -1.59069 -0.659368 -23.6341 0 0 -24.2 0.18697 -0.139053 -24.2906 0.373941 -0.278105 -24.3812 0.560911 -0.417158 -24.4718 0.598305 -0.444969 -24.4899 0.785275 -0.584021 -24.5805 0.972246 -0.723074 -24.6711 1.15922 -0.862127 -24.7617 1.34619 -1.00118 -24.8522 1.52296 -1.13265 -24.9379 0.598305 -0.444969 -24.4899 0.753797 -0.542354 -24.3201 0.889499 -0.627344 -24.1719 0 0 -25.4 0.172631 -0.156499 -25.4906 0.345262 -0.312999 -25.5812 0.517893 -0.469498 -25.6718 0.552419 -0.500798 -25.6899 0.72505 -0.657298 -25.7805 0.897682 -0.813797 -25.8711 1.07031 -0.970296 -25.9617 1.24294 -1.1268 -26.0522 1.2555 -1.13818 -26.0588 0.552419 -0.500798 -25.6899 0.724813 -0.579119 -25.5266 0.800039 -0.613296 -25.4554 0 0 -26.6 -0.0275499 -0.231375 -26.6906 -0.0550998 -0.462751 -26.7812 -0.0826497 -0.694126 -26.8718 -0.0881596 -0.740401 -26.8899 -0.11571 -0.971777 -26.9805 -0.143259 -1.20315 -27.0711 -0.170809 -1.43453 -27.1617 -0.176319 -1.4808 -27.1798 -0.0881596 -0.740401 -26.8899 0.122457 -0.856306 -26.9585 0 0 -27.8 0.228569 0.0452719 -27.8906 0.457139 0.0905439 -27.9812 0.685708 0.135816 -28.0718 0.731422 0.14487 -28.0899 0.959992 0.190142 -28.1805 1.18856 0.235414 -28.2711 1.26337 0.25023 -28.3007 0.731422 0.14487 -28.0899 0.741427 0.152545 -28.2302 0 0 -29 0.230983 0.0306696 -29.0906 0.461965 0.0613392 -29.1812 0.692948 0.0920088 -29.2718 0.739144 0.0981427 -29.2899 0.970127 0.128812 -29.3805 1.07512 0.142753 -29.4217 0.739144 0.0981427 -29.2899 0.74902 0.0759772 -29.3105 0 0 -30.2 0.0933328 -0.213501 -30.2906 0.186666 -0.427001 -30.3812 0.279998 -0.640502 -30.4718 0.298665 -0.683202 -30.4899 0.352968 -0.807421 -30.5426 0 0 -31.4 0.137737 0.187942 -31.4906 0.275473 0.375884 -31.5812 0.400688 0.54674 -31.6635 0 0 -32.6 0.225297 0.059455 -32.6906 0.450594 0.11891 -32.7812 0.458786 0.121072 -32.7845 0 0 -33.8 -0.231723 -0.0244555 -33.8906 -0.269641 -0.0284573 -33.9054 0 0 -35 0.0640431 -0.0222091 -35.0264 
</DataArray>
</Points>
<Lines>
<DataArray type="Int32" Name="connectivity" NumberOfComponents="1" format="ascii" >
0 1 2 3 4 5 6 7 8 9 10 11 12 13 14 15 16 17 18 19 20 21 22 23 24 25 26 27 28 29 30 31 32 33 34 35 36 37 38 39 40 41 42 43 44 45 46 47 48 49 50 51 52 53 54 55 56 57 58 59 60 61 62 63 64 65 66 67 68 69 70 71 72 73 74 75 76 77 78 79 80 81 82 83 84 85 86 87 88 89 90 91 92 93 94 95 96 97 98 99 100 101 102 103 104 105 106 107 108 109 110 111 112 113 114 115 116 117 118 119 120 121 122 123 124 125 126 127 128 129 130 131 132 133 134 135 136 137 138 139 140 141 142 143 144 145 146 147 148 149 150 151 152 153 154 155 156 157 158 159 160 161 162 163 164 165 166 167 168 169 170 171 172 173 174 175 176 177 178 179 180 181 182 183 184 185 186 187 188 189 190 191 192 193 194 195 196 197 198 199 200 201 202 203 204 205 206 207 208 209 210 211 212 213 214 215 216 217 218 219 220 221 222 223 224 225 226 227 228 229 230 231 232 233 234 235 236 237 238 239 240 241 242 243 244 245 246 247 248 249 250 251 252 253 254 255 256 257 258 259 260 261 262 263 264 265 266 267 268 269 270 271 272 273 274 275 276 277 278 279 280 281 282 283 284 285 286 287 288 289 290 291 292 293 294 295 296 297 298 299 300 301 302 303 304 305 306 307 308 309 310 311 312 313 314 315 316 317 318 319 320 321 322 323 324 325 326 327 328 329 330 331 332 333 334 335 336 337 338 339 340 341 342 343 344 345 346 347 348 349 350 351 352 353 354 355 356 357 358 359 360 361 362 363 364 365 366 367 368 369 370 371 372 373 374 375 376 377 378 379 380 381 382 383 384 385 386 387 388 389 390 391 392 393 394 395 396 397 398 399 400 401 402 403 404 405 406 407 408 409 410 411 412 413 414 415 416 417 418 419 420 421 422 423 424 425 426 427 428 429 430 431 432 433 434 435 436 437 438 439 440 441 442 443 444 445 446 447 448 449 450 451 452 453 454 455 456 457 458 459 460 461 462 463 464 465 466 467 468 469 470 471 472 473 474 475 476 477 478 479 480 481 482 483 484 485 486 487 488 489 490 491 492 493 494 495 496 497 498 499 500 501 502 503 504 505 506 507 508 509 510 511 512 513 514 515 516 517 518 519 520 521 522 523 524 525 526 527 528 529 530 531 532 533 534 535 536 537 538 539 540 541 542 543 544 545 546 547 548 549 550 551 552 553 554 555 556 557 558 559 560 561 562 563 564 565 566 567 568 569 570 571 572 573 574 575 576 577 578 579 580 581 582 583 584 585 586 587 588 589 590 591 592 593 594 595 596 597 598 599 600 601 602 603 604 605 606 607 608 609 610 611 612 613 614 615 616 617 618 619 620 621 622 623 624 625 626 627 628 629 630 631 632 633 634 635 636 637 638 639 640 641 642 643 644 645 646 647 648 649 650 651 652 653 654 655 656 657 658 659 660 661 662 663 664 665 666 667 668 669 670 671 672 673 674 675 676 677 678 679 680 681 682 683 684 685 686 687 688 689 690 691 692 693 694 695 696 697 698 699 700 701 702 703 704 705 706 707 708 709 710 711 712 713 714 715 716 717 718 719 720 721 722 723 724 725 726 727 728 729 730 731 732 733 734 735 736 737 738 739 740 741 742 743 744 745 746 747 748 749 750 751 752 753 754 755 756 757 758 759 760 761 762 
</DataArray>
<DataArray type="Int32" Name="offsets" NumberOfComponents="1" format="ascii" >
139 164 169 174 179 184 187 211 216 221 226 230 232 256 261 266 271 275 277 300 305 310 315 318 340 345 350 355 358 379 384 389 394 397 417 422 427 431 433 452 457 462 466 468 486 491 496 499 516 521 526 529 546 551 555 557 573 578 582 584 599 604 608 610 624 629 632 645 650 653 665 669 671 682 686 688 698 701 711 714 723 725 733 735 742 744 750 754 758 761 763 
</DataArray>

</Lines>
</Piece>
</PolyData>
</VTKFile>
