<?xml version="1.0"?><VTKFile type="PolyData" version="0.1" byte_order="LittleEndian">
<PolyData>
<Piece NumberOfLines="51" NumberOfPoints="334">
<PointData Scalars=" PointData">
<DataArray type="Float32" Name="time" NumberOfComponents="1" format="ascii" >
0 0.141576 0.283879 0.432687 0.57838 0.732743 0.902543 1.05703 1.23016 1.39723 1.53179 1.68331 1.85599 2.01572 2.20733 2.3841 2.54893 2.71373 2.86253 3.03523 3.21909 3.40869 3.56554 3.73565 3.91984 4.11589 4.28884 4.45711 4.60633 4.74837 4.9213 5.10412 5.26677 5.4469 5.63581 5.82554 6.00104 6.17556 6.32991 6.51864 6.73607 6.90432 7.1042 7.29091 7.5052 7.69886 7.89534 8.07555 8.25159 8.42579 8.60954 8.80332 9.01631 9.21151 9.42114 9.5934 9.78111 9.97169 10.1624 10.356 10.5465 10.7474 10.9138 11.0899 11.2504 11.4368 11.6184 11.8122 12.031 12.2202 12.3927 12.5757 12.7825 12.9883 13.2007 13.3885 13.5889 13.7894 13.983 14.2012 14.4586 14.6282 14.8104 15 5.94912 7.53112 9.33046 11.4165 13.8984 15 6.10659 7.79697 9.7196 11.9486 14.6005 15 6.27129 7.58982 9.0895 10.8282 12.8967 15 6.4326 7.73555 9.21751 10.9356 12.9797 15 6.60355 8.06789 9.73342 11.6644 13.9616 15 6.79165 8.47446 10.3885 12.6075 15 6.96284 8.4422 10.1248 12.0755 14.3964 15 7.15475 8.76632 10.5993 12.7244 15 7.34 8.67177 10.1865 11.9426 14.0319 15 7.48925 8.791 10.2716 11.9881 14.0303 15 7.65737 8.95871 10.4388 12.1548 14.1964 15 7.849 9.25755 10.8596 12.717 14.9267 15 8.02632 9.65109 11.4991 13.6416 15 8.23911 9.56244 11.0676 12.8126 14.8886 15 8.43548 9.90219 11.5704 13.5044 15 8.61866 9.83387 11.216 12.8185 14.7249 15 8.80186 10.3063 12.0174 14.0013 15 8.96732 10.2188 11.6423 13.2925 15 9.15943 10.5306 12.0902 13.8984 15 9.36401 10.6377 12.0864 13.7659 15 9.57505 10.9272 12.4652 14.2482 15 9.7497 11.0702 12.572 14.3132 15 9.93919 11.2925 12.8318 14.6164 15 10.1444 11.4974 13.0362 14.8203 15 10.363 11.8383 13.5164 15 10.5558 12.097 13.8499 15 10.7435 12.0367 13.5075 15 10.91 12.425 14.1481 15 11.0686 12.4663 14.0562 15 11.2616 12.8115 14.5743 15 11.4658 13.1726 15 11.6476 13.1101 14.7737 15 11.8489 13.3406 15 12.0601 13.762 15 12.2723 13.8823 15 12.4687 13.8643 15 12.6641 13.9413 15 12.8369 14.3021 15 13.0483 14.4697 15 13.292 14.5814 15 13.4806 15 13.7048 15 13.9143 15 14.1548 15 14.3723 15 14.593 15 14.7956 15 14.9935 15 7 7.18031 7.39201 7.60649 7.80587 7.99645 8.17676 8.3656 8.54891 8.75663 8.98144 9.18234 9.37421 9.55074 9.78493 10.0326 10.2035 10.4074 10.6119 10.8671 11.0543 11.2568 11.466 11.6741 11.8859 12.1317 12.3483 12.5732 12.7786 12.9716 13.1948 13.4343 13.6393 13.8637 14.0573 14.2699 14.4939 14.7346 14.9719 15 14 14.1711 14.3405 14.5043 14.6714 14.8594 15 
</DataArray>

</PointData>
<CellData Scalars=" CellData">
<DataArray type="Float32" Name="radius" NumberOfComponents="1" format="ascii" >
0.13841 0.0511998 0.049688 0.0476313 0.0530609 0.0393278 0.0422876 0.0532199 0.0538645 0.054696 0.0479805 0.062879 0.0488618 0.0505991 0.0484824 0.040527 0.0580364 0.0513263 0.056636 0.0449166 0.0505312 0.0474992 0.0458512 0.0436724 0.0558562 0.0535673 0.0430422 0.0481727 0.0567424 0.0428063 0.0472477 0.0493782 0.0458944 0.0488051 0.0475346 0.0548495 0.049586 0.0482991 0.0529768 0.050743 0.0517593 0.0506807 0.0436501 0.0451558 0.0543114 0.0598026 0.0474807 0.0490908 0.0494757 0.117895 0.128533 
</DataArray>
<DataArray type="Float32" Name="subType" NumberOfComponents="1" format="ascii" >
1 2 2 2 2 2 2 2 2 2 2 2 2 2 2 2 2 2 2 2 2 2 2 2 2 2 2 2 2 2 2 2 2 2 2 2 2 2 2 2 2 2 2 2 2 2 2 2 2 4 4 
</DataArray>
<DataArray type="Float32" Name="creationTime" NumberOfComponents="1" format="ascii" >
0 5.94912 6.10659 6.27129 6.4326 6.60355 6.79165 6.96284 7.15475 7.34 7.48925 7.65737 7.849 8.02632 8.23911 8.43548 8.61866 8.80186 8.96732 9.15943 9.36401 9.57505 9.7497 9.93919 10.1444 10.363 10.5558 10.7435 10.91 11.0686 11.2616 11.4658 11.6476 11.8489 12.0601 12.2723 12.4687 12.6641 12.8369 13.0483 13.292 13.4806 13.7048 13.9143 14.1548 14.3723 14.593 14.7956 14.9935 7 14 
</DataArray>

</CellData>
<Points>
<DataArray type="Float32" Name="Coordinates" NumberOfComponents="3" format="ascii" >
0 0 -3 0.306968 0.317935 -3.02895 0.624113 0.625652 -3.07275 0.950857 0.949302 -3.12782 1.27054 1.26595 -3.17406 1.60021 1.60332 -3.25136 1.96689 1.9563 -3.37732 2.31051 2.26793 -3.4826 2.68857 2.62002 -3.60781 3.06104 2.95281 -3.71778 3.37026 3.21232 -3.79417 3.70945 3.50884 -3.8942 4.11702 3.80356 -4.04274 4.47998 4.10473 -4.15008 4.92718 4.43654 -4.30678 5.35735 4.72639 -4.42484 5.75546 4.99179 -4.55009 6.14354 5.26626 -4.68108 6.49361 5.51223 -4.79966 6.9106 5.76464 -4.96234 7.38021 5.98762 -5.12711 7.86605 6.19488 -5.31478 8.26701 6.34758 -5.487 8.69914 6.50226 -5.68535 9.16367 6.63317 -5.92696 9.66019 6.77049 -6.17684 10.0926 6.88668 -6.40698 10.5083 7.00264 -6.63563 10.859 7.09593 -6.86999 11.1904 7.18488 -7.09451 11.595 7.29404 -7.36336 12.0379 7.38582 -7.62944 12.4217 7.4298 -7.88912 12.8329 7.44853 -8.19682 13.2567 7.43486 -8.52682 13.6786 7.41876 -8.85999 14.0598 7.42814 -9.17701 14.4112 7.42284 -9.52089 14.7204 7.41179 -9.82455 15.098 7.36527 -10.1915 15.5337 7.31079 -10.6103 15.8564 7.26979 -10.9468 16.2386 7.22123 -11.3451 16.5869 7.16365 -11.7213 17.0147 7.15504 -12.1277 17.394 7.15093 -12.4998 17.7814 7.08293 -12.8658 18.0971 6.96821 -13.2242 18.3906 6.85327 -13.584 18.6546 6.75462 -13.9624 18.9285 6.66285 -14.3658 19.2061 6.57014 -14.7976 19.4834 6.41402 -15.272 19.73 6.28136 -15.7121 19.9961 6.13678 -16.1812 20.2018 6.00866 -16.5689 20.4118 5.8372 -16.9851 20.6264 5.6665 -17.4063 20.8321 5.47702 -17.8224 21.04 5.28236 -18.242 21.2226 5.0705 -18.6532 21.4046 4.89393 -19.1104 21.5453 4.7496 -19.4922 21.69 4.60764 -19.9 21.7805 4.48703 -20.2852 21.8877 4.36273 -20.7356 22.0007 4.23887 -21.1697 22.0768 4.10917 -21.6412 22.1648 3.97214 -22.1738 22.2447 3.86436 -22.6345 22.329 3.75 -23.0468 22.4093 3.63376 -23.4858 22.4911 3.48334 -23.9763 22.5197 3.30221 -24.4576 22.5524 3.13553 -24.9592 22.5616 3.00557 -25.4072 22.5785 2.87044 -25.8845 22.6024 2.75482 -26.3651 22.6263 2.64856 -26.8285 22.6366 2.52173 -27.3479 22.6403 2.35817 -27.9545 22.672 2.24776 -28.3507 22.6688 2.17552 -28.7863 22.6807 2.10099 -29.2381 0.306968 0.317935 -3.02895 -0.37743 1.02384 -2.84647 -1.0613 1.68882 -2.54626 -1.66886 2.44112 -2.29148 -2.29167 3.14535 -1.95066 -2.55358 3.40495 -1.83417 0.624113 0.625652 -3.07275 0.314446 0.745213 -2.12945 0.00983772 0.849083 -1.18265 -0.35042 0.986127 -0.259923 -0.6101 1.13738 0.693853 -0.648697 1.15632 0.821735 0.950857 0.949302 -3.12782 0.406 1.35952 -3.85915 -0.147172 1.78039 -4.57809 -0.692775 2.1532 -5.32864 -1.10155 2.55741 -6.14688 -1.46645 2.88081 -6.83115 1.27054 1.26595 -3.17406 0.647996 1.98295 -2.86044 0.0161594 2.69349 -2.55073 -0.640137 3.33414 -2.15218 -1.20311 4.04625 -1.7327 -1.64041 4.66297 -1.41818 1.60021 1.60332 -3.25136 1.31383 1.30779 -4.16276 1.08894 1.02283 -5.09454 0.930172 0.688938 -6.02369 0.708776 0.323972 -6.928 0.626037 0.182366 -7.28571 1.96689 1.9563 -3.37732 2.7017 1.39673 -2.994 3.52831 0.931165 -2.67785 4.379 0.467614 -2.42995 5.15671 0.153499 -2.06654 2.31051 2.26793 -3.4826 1.70349 2.8499 -4.02375 1.08672 3.43142 -4.55425 0.516589 4.02829 -5.11878 -0.0728515 4.61035 -5.67892 -0.202904 4.76049 -5.79596 2.68857 2.62002 -3.60781 3.37108 2.13296 -3.06287 4.09349 1.68239 -2.53836 4.78803 1.21918 -1.98787 5.45433 0.785758 -1.54816 3.06104 2.95281 -3.71778 3.58954 2.45482 -4.40531 4.20662 1.97583 -5.02963 4.80093 1.49561 -5.67475 5.3952 1.01534 -6.31988 5.63843 0.833158 -6.58453 3.37026 3.21232 -3.79417 2.81109 3.99952 -4.05426 2.21626 4.76381 -4.30332 1.68271 5.55571 -4.60035 1.12669 6.33667 -4.88483 0.892171 6.64346 -5.02989 3.70945 3.50884 -3.8942 3.35459 4.32918 -4.34266 3.01136 5.16067 -4.77949 2.6586 5.9528 -5.27758 2.26812 6.76454 -5.71187 2.16323 7.06057 -5.85358 4.11702 3.80356 -4.04274 4.52918 3.81623 -3.13172 4.90654 3.87444 -2.20748 5.33918 3.97524 -1.31157 5.65584 4.19301 -0.388366 5.66532 4.19955 -0.36063 4.47998 4.10473 -4.15008 4.04896 4.64767 -4.8708 3.71976 5.23984 -5.60631 3.47391 5.82632 -6.37806 3.30271 6.16483 -6.78513 4.92718 4.43654 -4.30678 5.61749 4.05785 -3.69028 6.36894 3.69862 -3.13686 7.10607 3.30114 -2.59038 7.78731 2.89932 -1.97845 7.82042 2.88023 -1.94861 5.35735 4.72639 -4.42484 4.91287 5.59365 -4.64911 4.42848 6.42531 -4.9206 3.93906 7.24996 -5.2042 3.57271 7.78782 -5.36883 5.75546 4.99179 -4.55009 6.33672 4.32293 -5.01351 6.78502 3.50533 -5.37484 7.15743 2.65097 -5.73731 7.476 1.76149 -6.06493 7.51298 1.64683 -6.11192 6.14354 5.26626 -4.68108 6.70204 4.59801 -5.17253 7.26058 3.92952 -5.66359 7.82448 3.2222 -6.08988 8.08148 2.89869 -6.25877 6.49361 5.51223 -4.79966 5.94255 6.34401 -4.73275 5.4099 7.18867 -4.67952 4.78083 7.96458 -4.63218 4.2249 8.64555 -4.58908 6.9106 5.76464 -4.96234 6.68292 5.75347 -5.93601 6.40966 5.69385 -6.8961 6.18775 5.51017 -7.85371 6.09185 5.39415 -8.36785 7.38021 5.98762 -5.12711 6.93762 6.88427 -5.11544 6.47431 7.76994 -5.08492 6.04289 8.6566 -5.25141 5.70341 9.18942 -5.35222 7.86605 6.19488 -5.31478 7.67466 6.80039 -4.54231 7.41331 7.3919 -3.77954 7.12126 7.96366 -3.01286 7.00499 8.17507 -2.72417 8.26701 6.34758 -5.487 7.85412 6.48007 -6.38809 7.48948 6.56992 -7.31489 7.22155 6.65821 -8.27428 7.12136 6.69158 -8.61081 8.69914 6.50226 -5.68535 8.25637 7.3719 -5.46696 7.72021 8.1731 -5.20126 7.25036 9.0099 -4.92015 7.15915 9.1742 -4.86827 9.16367 6.63317 -5.92696 8.89146 6.41653 -6.86449 8.47659 6.24931 -7.75888 8.08803 6.20241 -8.6791 8.04839 6.19627 -8.76211 9.66019 6.77049 -6.17684 9.28311 7.38739 -6.86767 8.8007 7.98315 -7.50981 8.42721 8.44698 -8.00852 10.0926 6.88668 -6.40698 10.6527 6.06855 -6.53744 11.2696 5.28455 -6.60627 11.6204 4.81743 -6.64447 10.5083 7.00264 -6.63563 11.0217 7.10622 -5.78372 11.5287 7.22979 -4.93067 11.9345 7.37209 -4.15859 10.859 7.09593 -6.86999 11.0557 6.21053 -7.29113 11.2496 5.31794 -7.69817 11.3494 4.91827 -7.86908 11.1904 7.18488 -7.09451 11.0445 6.50365 -7.8119 10.9112 5.82837 -8.53732 10.8433 5.46752 -8.92214 11.595 7.29404 -7.36336 11.1156 8.13216 -7.62349 10.6339 8.97014 -7.88009 10.5172 9.14789 -7.94237 12.0379 7.38582 -7.62944 11.2704 7.77666 -8.13756 10.5223 8.09089 -8.62209 12.4217 7.4298 -7.88912 11.8512 7.70544 -8.66278 11.1776 8.00518 -9.33833 11.0936 8.03918 -9.42558 12.8329 7.44853 -8.19682 12.5909 8.41395 -8.29383 12.3567 9.36023 -8.38931 13.2567 7.43486 -8.52682 14.1613 7.85562 -8.45784 14.7483 8.13956 -8.39353 13.6786 7.41876 -8.85999 14.024 8.35044 -8.74752 14.2236 8.94144 -8.68757 14.0598 7.42814 -9.17701 14.8208 7.55464 -8.54069 15.3698 7.66615 -8.07364 14.4112 7.42284 -9.52089 14.9719 8.00156 -8.92875 15.3798 8.41815 -8.46954 14.7204 7.41179 -9.82455 14.9717 6.53763 -9.40895 15.0941 6.16137 -9.22697 15.098 7.36527 -10.1915 14.4575 7.96841 -10.6669 14.2408 8.17945 -10.8292 15.5337 7.31079 -10.6103 14.8526 7.80101 -11.1542 14.6419 7.93301 -11.3213 15.8564 7.26979 -10.9468 16.5895 7.44754 -10.4731 16.2386 7.22123 -11.3451 16.2716 7.96313 -11.6376 16.5869 7.16365 -11.7213 17.1431 7.83966 -11.7909 17.0147 7.15504 -12.1277 16.6098 6.85625 -12.4012 17.394 7.15093 -12.4998 17.3989 7.56983 -12.5167 17.7814 7.08293 -12.8658 17.9997 7.2536 -12.7403 18.0971 6.96821 -13.2242 18.1805 7.04019 -13.1182 18.3906 6.85327 -13.584 18.3874 6.85403 -13.5872 0 0 -3 -0.379276 -0.109182 -3.2134 -0.81875 -0.23711 -3.4713 -1.2586 -0.356544 -3.74323 -1.66643 -0.467227 -3.99522 -2.04317 -0.586273 -4.24796 -2.36293 -0.741057 -4.51201 -2.69597 -0.864491 -4.80811 -3.02222 -0.978484 -5.09276 -3.36347 -1.15469 -5.42221 -3.73241 -1.34487 -5.77701 -4.04896 -1.50448 -6.11026 -4.33532 -1.65542 -6.44191 -4.5942 -1.79557 -6.7489 -4.96976 -1.98733 -7.12143 -5.34728 -2.18342 -7.53457 -5.60022 -2.30937 -7.82905 -5.88854 -2.46935 -8.18566 -6.1769 -2.63186 -8.54129 -6.52603 -2.81988 -8.99728 -6.78125 -2.9574 -9.33089 -7.05741 -3.10776 -9.68937 -7.34398 -3.22603 -10.0702 -7.62642 -3.32484 -10.4549 -7.96456 -3.4078 -10.8059 -8.36044 -3.48799 -11.2109 -8.71807 -3.5759 -11.553 -9.06467 -3.69234 -11.923 -9.37932 -3.78815 -12.2638 -9.64862 -3.86016 -12.6094 -9.9481 -3.93444 -13.0177 -10.2313 -3.99339 -13.4828 -10.4484 -4.02474 -13.8954 -10.6796 -4.07264 -14.3475 -10.893 -4.13219 -14.7263 -11.0744 -4.17057 -15.1695 -11.2589 -4.21429 -15.6373 -11.4489 -4.16366 -16.141 -11.6482 -4.12267 -16.6319 -11.6707 -4.12149 -16.6904 0 0 -3 0.140556 -0.493084 -3.07786 0.270956 -0.98097 -3.16134 0.358301 -1.44901 -3.2908 0.447409 -1.92532 -3.42259 0.552073 -2.46223 -3.55597 0.621934 -2.86065 -3.66896 
</DataArray>
</Points>
<Lines>
<DataArray type="Int32" Name="connectivity" NumberOfComponents="1" format="ascii" >
0 1 2 3 4 5 6 7 8 9 10 11 12 13 14 15 16 17 18 19 20 21 22 23 24 25 26 27 28 29 30 31 32 33 34 35 36 37 38 39 40 41 42 43 44 45 46 47 48 49 50 51 52 53 54 55 56 57 58 59 60 61 62 63 64 65 66 67 68 69 70 71 72 73 74 75 76 77 78 79 80 81 82 83 84 85 86 87 88 89 90 91 92 93 94 95 96 97 98 99 100 101 102 103 104 105 106 107 108 109 110 111 112 113 114 115 116 117 118 119 120 121 122 123 124 125 126 127 128 129 130 131 132 133 134 135 136 137 138 139 140 141 142 143 144 145 146 147 148 149 150 151 152 153 154 155 156 157 158 159 160 161 162 163 164 165 166 167 168 169 170 171 172 173 174 175 176 177 178 179 180 181 182 183 184 185 186 187 188 189 190 191 192 193 194 195 196 197 198 199 200 201 202 203 204 205 206 207 208 209 210 211 212 213 214 215 216 217 218 219 220 221 222 223 224 225 226 227 228 229 230 231 232 233 234 235 236 237 238 239 240 241 242 243 244 245 246 247 248 249 250 251 252 253 254 255 256 257 258 259 260 261 262 263 264 265 266 267 268 269 270 271 272 273 274 275 276 277 278 279 280 281 282 283 284 285 286 287 288 289 290 291 292 293 294 295 296 297 298 299 300 301 302 303 304 305 306 307 308 309 310 311 312 313 314 315 316 317 318 319 320 321 322 323 324 325 326 327 328 329 330 331 332 333 
</DataArray>
<DataArray type="Int32" Name="offsets" NumberOfComponents="1" format="ascii" >
84 90 96 102 108 114 119 125 130 136 142 148 154 159 165 170 176 181 186 191 196 201 206 211 216 220 224 228 232 236 240 243 247 250 253 256 259 262 265 268 271 273 275 277 279 281 283 285 287 327 334 
</DataArray>

</Lines>
</Piece>
</PolyData>
</VTKFile>
