<?xml version="1.0"?><VTKFile type="PolyData" version="0.1" byte_order="LittleEndian">
<PolyData>
<Piece NumberOfLines="145" NumberOfPoints="1434">
<PointData Scalars=" PointData">
<DataArray type="Float32" Name="time" NumberOfComponents="1" format="ascii" >
0 0.128339 0.256945 0.385821 0.514967 0.644385 0.774075 0.904038 1.03428 1.16479 1.29558 1.42665 1.558 1.68963 1.82154 1.95374 2.08622 2.21898 2.35204 2.48538 2.61901 2.75293 2.88714 3.02164 3.15644 3.29154 3.42693 3.56262 3.69861 3.8349 3.97149 4.10839 4.24559 4.3831 4.52091 4.65904 4.79747 4.93622 5.07528 5.21466 5.35435 5.49435 5.63468 5.77533 5.9163 6.05759 6.19921 6.34116 6.48343 6.62603 6.76896 6.91223 7.05583 7.19976 7.34404 7.48865 7.6336 7.77889 7.92453 8.07051 8.21684 8.36352 8.51054 8.65792 8.80565 8.95374 9.10219 9.25099 9.40016 9.54968 9.69957 9.84983 10 10.0004 10.1514 10.3028 10.4545 10.6067 10.7591 10.912 11.0653 11.2189 11.3729 11.5273 11.6821 11.8373 11.9928 12.1488 12.3051 12.4619 12.6191 12.7766 12.9346 13.093 13.2517 13.4109 13.5705 13.7305 13.891 14.0518 14.2131 14.3748 14.5369 14.6995 14.8624 15.0258 15.1897 15.354 15.5187 15.6839 15.8495 16.0155 16.182 16.349 16.5164 16.6843 16.8526 17.0214 17.1906 17.3603 17.5305 17.7012 17.8723 18.0439 18.216 18.3886 18.5616 18.7352 18.9092 19.0837 19.2587 19.4343 19.6103 19.7868 19.9638 20.1414 20.3194 20.498 20.6771 20.8567 21 6.61176 7.29811 8.02712 8.80445 9.63695 10.5331 11.5033 12.5611 13.7237 15.0144 16.4648 18.1202 20.048 21 6.75466 7.44101 8.17002 8.94735 9.77985 10.676 11.6462 12.704 13.8666 15.1573 16.6077 18.2631 20.1909 21 6.89789 7.58424 8.31326 9.09058 9.92308 10.8192 11.7894 12.8472 14.0099 15.3006 16.751 18.4063 20.3341 21 7.04145 7.72781 8.45682 9.23415 10.0666 10.9628 11.933 12.9908 14.1534 15.4441 16.8945 18.5499 20.4777 21 7.18536 7.87171 8.60072 9.37805 10.2106 11.1067 12.0769 13.1347 14.2973 15.588 17.0384 18.6938 20.6216 21 7.32959 8.01595 8.74496 9.52229 10.3548 11.2509 12.2211 13.2789 14.4416 15.7323 17.1827 18.838 20.7658 21 7.47417 8.16053 8.88954 9.66687 10.4994 11.3955 12.3657 13.4235 14.5862 15.8768 17.3272 18.9826 20.9104 21 7.61909 8.30544 9.03446 9.81178 10.6443 11.5404 12.5106 13.5684 14.7311 16.0218 17.4722 19.1275 21 7.76435 8.4507 9.17971 9.95704 10.7895 11.6857 12.6559 13.7137 14.8763 16.167 17.6174 19.2727 21 7.90995 8.5963 9.32532 10.1026 10.9351 11.8313 12.8015 13.8593 15.0219 16.3126 17.763 19.4183 21 8.0559 8.74225 9.47126 10.2486 11.0811 11.9772 12.9475 14.0052 15.1679 16.4586 17.909 19.5643 21 8.20219 8.88855 9.61756 10.3949 11.2274 12.1235 13.0937 14.1515 15.3142 16.6049 18.0553 19.7106 21 8.34883 9.03519 9.7642 10.5415 11.374 12.2701 13.2404 14.2982 15.4608 16.7515 18.2019 19.8572 21 8.49582 9.18218 9.91119 10.6885 11.521 12.4171 13.3874 14.4452 15.6078 16.8985 18.3489 20.0042 21 8.64317 9.32952 10.0585 10.8359 11.6684 12.5645 13.5347 14.5925 15.7552 17.0458 18.4962 20.1516 21 8.79087 9.47722 10.2062 10.9836 11.8161 12.7122 13.6824 14.7402 15.9029 17.1935 18.6439 20.2993 21 8.93892 9.62527 10.3543 11.1316 11.9641 12.8602 13.8305 14.8882 16.0509 17.3416 18.792 20.4473 21 9.08733 9.77368 10.5027 11.28 12.1125 13.0086 13.9789 15.0367 16.1993 17.49 18.9404 20.5957 21 9.2361 9.92245 10.6515 11.4288 12.2613 13.1574 14.1276 15.1854 16.3481 17.6388 19.0892 20.7445 21 9.38522 10.0716 10.8006 11.5779 12.4104 13.3065 14.2768 15.3345 16.4972 17.7879 19.2383 20.8936 21 9.53471 10.2211 10.9501 11.7274 12.5599 13.456 14.4263 15.484 16.6467 17.9374 19.3878 21 9.68457 10.3709 11.0999 11.8773 12.7098 13.6059 14.5761 15.6339 16.7966 18.0872 19.5376 21 9.83478 10.5211 11.2502 12.0275 12.86 13.7561 14.7263 15.7841 16.9468 18.2375 19.6879 21 9.98537 10.6717 11.4007 12.1781 13.0106 13.9067 14.8769 15.9347 17.0974 18.388 19.8384 21 10.1363 10.8227 11.5517 12.329 13.1615 14.0576 15.0279 16.0857 17.2483 18.539 19.9894 21 10.2877 10.974 11.703 12.4803 13.3128 14.209 15.1792 16.237 17.3996 18.6903 20.1407 21 10.4394 11.1257 11.8547 12.632 13.4645 14.3607 15.3309 16.3887 17.5513 18.842 20.2924 21 10.5914 11.2778 12.0068 12.7841 13.6166 14.5127 15.483 16.5408 17.7034 18.9941 20.4445 21 10.7439 11.4302 12.1592 12.9366 13.7691 14.6652 15.6354 16.6932 17.8559 19.1465 20.5969 21 10.8967 11.5831 12.3121 13.0894 13.9219 14.818 15.7883 16.846 18.0087 19.2994 20.7498 21 11.0499 11.7363 12.4653 13.2426 14.0751 14.9712 15.9415 16.9992 18.1619 19.4526 20.903 21 11.2035 11.8899 12.6189 13.3962 14.2287 15.1248 16.0951 17.1528 18.3155 19.6062 21 11.3575 12.0438 12.7728 13.5502 14.3827 15.2788 16.249 17.3068 18.4695 19.7601 21 11.5118 12.1982 12.9272 13.7045 14.537 15.4331 16.4034 17.4612 18.6238 19.9145 21 11.6666 12.3529 13.082 13.8593 14.6918 15.5879 16.5581 17.6159 18.7786 20.0693 21 11.8217 12.5081 13.2371 14.0144 14.8469 15.743 16.7133 17.771 18.9337 20.2244 21 11.9773 12.6636 13.3926 14.1699 15 15.8959 16.8659 17.9234 19.0858 20.3761 21 12.1332 12.8195 13.5485 14.3259 15.1584 16.0545 17.0247 18.0825 19.2452 20.5358 21 12.2895 12.9759 13.7049 14.4822 15.3147 16.2108 17.181 18.2388 19.4015 20.6922 21 12.4462 13.1326 13.8616 14.6389 15.4714 16.3675 17.3378 18.3955 19.5582 20.8489 21 12.6033 13.2897 14.0187 14.796 15.6285 16.5246 17.4949 18.5527 19.7153 21 12.7608 13.4472 14.1762 14.9535 15.786 16.6822 17.6524 18.7102 19.8728 21 12.9188 13.6051 14.3341 15.1115 15.944 16.8401 17.8103 18.8681 20.0308 21 13.0771 13.7635 14.4925 15.2698 16.1023 16.9984 17.9687 19.0264 20.1891 21 13.2358 13.9222 14.6512 15.4285 16.261 17.1571 18.1274 19.1852 20.3478 21 13.395 14.0813 14.8104 15.5877 16.4202 17.3163 18.2865 19.3443 20.507 21 13.5545 14.2409 14.9699 15.7472 16.5797 17.4758 18.4461 19.5039 20.6665 21 13.7145 14.4009 15.1299 15.9072 16.7397 17.6358 18.6061 19.6638 20.8265 21 13.8749 14.5613 15.2903 16.0676 16.9001 17.7962 18.7665 19.8242 20.9869 21 14.0357 14.7221 15.4511 16.2284 17.0609 17.957 18.9273 19.985 21 14.1969 14.8833 15.6123 16.3896 17.2221 18.1182 19.0885 20.1463 21 14.3586 15.045 15.774 16.5513 17.3838 18.2799 19.2502 20.3079 21 14.5207 15.207 15.936 16.7134 17.5459 18.442 19.4122 20.47 21 14.6832 15.3695 16.0985 16.8759 17.7084 18.6045 19.5747 20.6325 21 14.8461 15.5325 16.2615 17.0388 17.8713 18.7674 19.7377 20.7954 21 15.0095 15.6958 16.4249 17.2022 18.0347 18.9308 19.901 20.9588 21 15.1733 15.8596 16.5887 17.366 18.1985 19.0946 20.0648 21 15.3375 16.0239 16.7529 17.5302 18.3627 19.2588 20.2291 21 15.5022 16.1886 16.9176 17.6949 18.5274 19.4235 20.3938 21 15.6673 16.3537 17.0827 17.86 18.6925 19.5886 20.5589 21 15.8329 16.5192 17.2483 18.0256 18.8581 19.7542 20.7244 21 15.9989 16.6853 17.4143 18.1916 19.0241 19.9202 20.8905 21 16.1654 16.8517 17.5807 18.3581 19.1906 20.0867 21 16.3323 17.0186 17.7476 18.525 19.3575 20.2536 21 16.4996 17.186 17.915 18.6923 19.5248 20.4209 21 16.6675 17.3538 18.0828 18.8601 19.6926 20.5888 21 16.8357 17.5221 18.2511 19.0284 19.8609 20.757 21 17.0045 17.6908 18.4198 19.1972 20.0297 20.9258 21 17.1737 17.86 18.589 19.3664 20.1989 21 17.3433 18.0297 18.7587 19.536 20.3685 21 17.5135 18.1998 18.9288 19.7062 20.5387 21 17.6841 18.3704 19.0995 19.8768 20.7093 21 17.8552 18.5415 19.2705 20.0479 20.8804 21 18.0267 18.7131 19.4421 20.2194 21 18.1988 18.8851 19.6141 20.3915 21 18.3713 19.0576 19.7867 20.564 21 18.5443 19.2306 19.9597 20.737 21 18.7178 19.4041 20.1332 20.9105 21 18.8918 19.5781 20.3071 21 19.0662 19.7526 20.4816 21 19.2412 19.9276 20.6566 21 19.4167 20.103 20.8321 21 19.5927 20.279 21 19.7691 20.4555 21 19.9461 20.6325 21 20.1236 20.81 21 20.3016 20.988 21 20.4801 21 20.6592 21 20.8387 21 7 7.12834 7.25695 7.38582 7.51497 7.64438 7.77407 7.90404 8.03428 8.16479 8.29558 8.42665 8.558 8.68963 8.82154 8.95374 9.08622 9.21898 9.35204 9.48538 9.61901 9.75293 9.88714 10.0216 10.1564 10.2915 10.4269 10.5626 10.6986 10.8349 10.9715 11.1084 11.2456 11.3831 11.5209 11.659 11.7975 11.9362 12.0753 12.2147 12.3543 12.4944 12.6347 12.7753 12.9163 13.0576 13.1992 13.3412 13.4834 13.626 13.769 13.9122 14.0558 14.1998 14.344 14.4886 14.6336 14.7789 14.9245 15.0705 15.2168 15.3635 15.5105 15.6579 15.8057 15.9537 16.1022 16.251 16.4002 16.5497 16.6996 16.8498 17.0004 17.1514 17.3028 17.4545 17.6067 17.7591 17.912 18.0653 18.2189 18.3729 18.5273 18.6821 18.8373 18.9928 19.1488 19.3051 19.4619 19.6191 19.7766 19.9346 20.093 20.2517 20.4109 20.5705 20.7305 20.891 21 13.6118 14.2981 15.0271 15.8045 16.637 17.5331 18.5033 19.5611 20.7237 21 13.7547 14.441 15.17 15.9474 16.7799 17.676 18.6462 19.704 20.8666 21 13.8979 14.5842 15.3133 16.0906 16.9231 17.8192 18.7894 19.8472 21 14.0415 14.7278 15.4568 16.2341 17.0666 17.9628 18.933 19.9908 21 14.1854 14.8717 15.6007 16.378 17.2106 18.1067 19.0769 20.1347 21 14.3296 15.0159 15.745 16.5223 17.3548 18.2509 19.2211 20.2789 21 14.4742 15.1605 15.8895 16.6669 17.4994 18.3955 19.3657 20.4235 21 14.6191 15.3054 16.0345 16.8118 17.6443 18.5404 19.5106 20.5684 21 14.7643 15.4507 16.1797 16.957 17.7895 18.6857 19.6559 20.7137 21 14.9099 15.5963 16.3253 17.1026 17.9351 18.8313 19.8015 20.8593 21 15.0559 15.7423 16.4713 17.2486 18.0811 18.9772 19.9475 21 15.2022 15.8885 16.6176 17.3949 18.2274 19.1235 20.0937 21 15.3488 16.0352 16.7642 17.5415 18.374 19.2701 20.2404 21 15.4958 16.1822 16.9112 17.6885 18.521 19.4171 20.3874 21 15.6432 16.3295 17.0585 17.8359 18.6684 19.5645 20.5347 21 15.7909 16.4772 17.2062 17.9836 18.8161 19.7122 20.6824 21 15.9389 16.6253 17.3543 18.1316 18.9641 19.8602 20.8305 21 16.0873 16.7737 17.5027 18.28 19.1125 20.0086 20.9789 21 16.2361 16.9225 17.6515 18.4288 19.2613 20.1574 21 16.3852 17.0716 17.8006 18.5779 19.4104 20.3065 21 16.5347 17.2211 17.9501 18.7274 19.5599 20.456 21 16.6846 17.3709 18.0999 18.8773 19.7098 20.6059 21 16.8348 17.5211 18.2502 19.0275 19.86 20.7561 21 16.9854 17.6717 18.4007 19.1781 20.0106 20.9067 21 17.1363 17.8227 18.5517 19.329 20.1615 21 17.2877 17.974 18.703 19.4803 20.3128 21 17.4394 18.1257 18.8547 19.632 20.4645 21 17.5914 18.2778 19.0068 19.7841 20.6166 21 17.7439 18.4302 19.1592 19.9366 20.7691 21 17.8967 18.5831 19.3121 20.0894 20.9219 21 18.0499 18.7363 19.4653 20.2426 21 18.2035 18.8899 19.6189 20.3962 21 18.3575 19.0438 19.7728 20.5502 21 18.5118 19.1982 19.9272 20.7045 21 18.6666 19.3529 20.082 20.8593 21 18.8217 19.5081 20.2371 21 18.9773 19.6636 20.3926 21 19.1332 19.8195 20.5485 21 19.2895 19.9759 20.7049 21 19.4462 20.1326 20.8616 21 19.6033 20.2897 21 19.7608 20.4472 21 19.9188 20.6051 21 20.0771 20.7635 21 20.2358 20.9222 21 20.395 21 20.5545 21 20.7145 21 20.8749 21 14 14.1283 14.2569 14.3858 14.515 14.6444 14.7741 14.904 15.0343 15.1648 15.2956 15.4267 15.558 15.6896 15.8215 15.9537 16.0862 16.219 16.352 16.4854 16.619 16.7529 16.8871 17.0216 17.1564 17.2915 17.4269 17.5626 17.6986 17.8349 17.9715 18.1084 18.2456 18.3831 18.5209 18.659 18.7975 18.9362 19.0753 19.2147 19.3543 19.4944 19.6347 19.7753 19.9163 20.0576 20.1992 20.3412 20.4834 20.626 20.769 20.9122 21 20.6118 21 20.7547 21 20.8979 21 
</DataArray>

</PointData>
<CellData Scalars=" CellData">
<DataArray type="Float32" Name="radius" NumberOfComponents="1" format="ascii" >
0.13 0.05 0.05 0.05 0.05 0.05 0.05 0.05 0.05 0.05 0.05 0.05 0.05 0.05 0.05 0.05 0.05 0.05 0.05 0.05 0.05 0.05 0.05 0.05 0.05 0.05 0.05 0.05 0.05 0.05 0.05 0.05 0.05 0.05 0.05 0.05 0.05 0.05 0.05 0.05 0.05 0.05 0.05 0.05 0.05 0.05 0.05 0.05 0.05 0.05 0.05 0.05 0.05 0.05 0.05 0.05 0.05 0.05 0.05 0.05 0.05 0.05 0.05 0.05 0.05 0.05 0.05 0.05 0.05 0.05 0.05 0.05 0.05 0.05 0.05 0.05 0.05 0.05 0.05 0.05 0.05 0.05 0.05 0.05 0.05 0.05 0.05 0.05 0.05 0.05 0.05 0.13 0.05 0.05 0.05 0.05 0.05 0.05 0.05 0.05 0.05 0.05 0.05 0.05 0.05 0.05 0.05 0.05 0.05 0.05 0.05 0.05 0.05 0.05 0.05 0.05 0.05 0.05 0.05 0.05 0.05 0.05 0.05 0.05 0.05 0.05 0.05 0.05 0.05 0.05 0.05 0.05 0.05 0.05 0.05 0.05 0.05 0.05 0.05 0.05 0.05 0.13 0.05 0.05 0.05 
</DataArray>
<DataArray type="Float32" Name="subType" NumberOfComponents="1" format="ascii" >
1 2 2 2 2 2 2 2 2 2 2 2 2 2 2 2 2 2 2 2 2 2 2 2 2 2 2 2 2 2 2 2 2 2 2 2 2 2 2 2 2 2 2 2 2 2 2 2 2 2 2 2 2 2 2 2 2 2 2 2 2 2 2 2 2 2 2 2 2 2 2 2 2 2 2 2 2 2 2 2 2 2 2 2 2 2 2 2 2 2 2 4 2 2 2 2 2 2 2 2 2 2 2 2 2 2 2 2 2 2 2 2 2 2 2 2 2 2 2 2 2 2 2 2 2 2 2 2 2 2 2 2 2 2 2 2 2 2 2 2 2 4 2 2 2 
</DataArray>
<DataArray type="Float32" Name="creationTime" NumberOfComponents="1" format="ascii" >
0 6.61176 6.75466 6.89789 7.04145 7.18536 7.32959 7.47417 7.61909 7.76435 7.90995 8.0559 8.20219 8.34883 8.49582 8.64317 8.79087 8.93892 9.08733 9.2361 9.38522 9.53471 9.68457 9.83478 9.98537 10.1363 10.2877 10.4394 10.5914 10.7439 10.8967 11.0499 11.2035 11.3575 11.5118 11.6666 11.8217 11.9773 12.1332 12.2895 12.4462 12.6033 12.7608 12.9188 13.0771 13.2358 13.395 13.5545 13.7145 13.8749 14.0357 14.1969 14.3586 14.5207 14.6832 14.8461 15.0095 15.1733 15.3375 15.5022 15.6673 15.8329 15.9989 16.1654 16.3323 16.4996 16.6675 16.8357 17.0045 17.1737 17.3433 17.5135 17.6841 17.8552 18.0267 18.1988 18.3713 18.5443 18.7178 18.8918 19.0662 19.2412 19.4167 19.5927 19.7691 19.9461 20.1236 20.3016 20.4801 20.6592 20.8387 7 13.6118 13.7547 13.8979 14.0415 14.1854 14.3296 14.4742 14.6191 14.7643 14.9099 15.0559 15.2022 15.3488 15.4958 15.6432 15.7909 15.9389 16.0873 16.2361 16.3852 16.5347 16.6846 16.8348 16.9854 17.1363 17.2877 17.4394 17.5914 17.7439 17.8967 18.0499 18.2035 18.3575 18.5118 18.6666 18.8217 18.9773 19.1332 19.2895 19.4462 19.6033 19.7608 19.9188 20.0771 20.2358 20.395 20.5545 20.7145 20.8749 14 20.6118 20.7547 20.8979 
</DataArray>

</CellData>
<Points>
<DataArray type="Float32" Name="Coordinates" NumberOfComponents="3" format="ascii" >
0 0 -1.2 -0.276193 -0.380535 -1.37003 -0.546967 -0.763556 -1.54317 -0.817616 -1.14888 -1.71132 -1.08496 -1.53515 -1.88255 -1.393 -1.89785 -2.03605 -1.68788 -2.28227 -2.15963 -1.97246 -2.66169 -2.31789 -2.26421 -3.0573 -2.40942 -2.57311 -3.43792 -2.50797 -2.86979 -3.82453 -2.6198 -3.19752 -4.1713 -2.76928 -3.50513 -4.54033 -2.90784 -3.8038 -4.92229 -3.02991 -4.10757 -5.29887 -3.15604 -4.41119 -5.67573 -3.28171 -4.69892 -6.05872 -3.42499 -4.96135 -6.45678 -3.57559 -5.18993 -6.85979 -3.76356 -5.40834 -7.26339 -3.96207 -5.63514 -7.65902 -4.16709 -5.83218 -8.06849 -4.3757 -6.01562 -8.49125 -4.56966 -6.18147 -8.9135 -4.7799 -6.36469 -9.32606 -4.99488 -6.55612 -9.75623 -5.16314 -6.7258 -10.1821 -5.36271 -6.89381 -10.6048 -5.57028 -7.07982 -11.0186 -5.78056 -7.21154 -11.4494 -5.99746 -7.36348 -11.8656 -6.22914 -7.5398 -12.2673 -6.469 -7.73811 -12.6355 -6.7431 -7.93519 -13.0044 -7.01705 -8.11903 -13.3629 -7.31321 -8.32084 -13.688 -7.63503 -8.49923 -13.9973 -7.98505 -8.68751 -14.302 -8.33388 -8.87963 -14.5735 -8.70723 -9.1068 -14.8405 -9.06376 -9.31867 -15.108 -9.42923 -9.53163 -15.3527 -9.80974 -9.72973 -15.61 -10.1899 -9.90385 -15.863 -10.5844 -10.0736 -16.1483 -10.9583 -10.246 -16.4494 -11.3184 -10.3577 -16.7204 -11.7235 -10.4093 -16.986 -12.144 -10.4876 -17.2566 -12.557 -10.5828 -17.4799 -12.9942 -10.6757 -17.7105 -13.4279 -10.7805 -17.9416 -13.8588 -10.8897 -18.1685 -14.2907 -10.9751 -18.3666 -14.7418 -11.0623 -18.5556 -15.1964 -11.1455 -18.7504 -15.6493 -11.2359 -18.9302 -16.1071 -11.3325 -19.1217 -16.5587 -11.468 -19.2765 -17.0144 -11.6028 -19.4258 -17.4722 -11.7953 -19.5774 -17.9081 -11.9477 -19.7533 -18.3506 -12.1252 -19.904 -18.793 -12.3039 -20.071 -19.2291 -12.4748 -20.2418 -19.6669 -12.623 -20.4164 -20.1113 -12.7751 -20.5899 -20.5549 -12.9222 -20.7512 -21.0047 -13.0703 -20.9112 -21.4547 -13.2021 -21.0507 -21.9164 -13.3027 -21.1974 -22.3837 -13.4285 -21.3072 -22.855 -13.5244 -21.4635 -23.3186 -13.5247 -21.464 -23.3199 -13.6174 -21.612 -23.7884 -13.7098 -21.7482 -24.2606 -13.8521 -21.878 -24.722 -13.9611 -22.0311 -25.1853 -14.0887 -22.1732 -25.6474 -14.2107 -22.3153 -26.111 -14.3313 -22.4337 -26.5816 -14.4713 -22.544 -27.0487 -14.5649 -22.6589 -27.5263 -14.6638 -22.7483 -28.0082 -14.7703 -22.8469 -28.4866 -14.8466 -22.9576 -28.9682 -14.9533 -23.056 -29.4467 -15.0624 -23.1286 -29.9292 -15.1828 -23.1859 -30.4111 -15.279 -23.1793 -30.9017 -15.3829 -23.1746 -31.3908 -15.4958 -23.1562 -31.8775 -15.6237 -23.1422 -32.3607 -15.7412 -23.1248 -32.8464 -15.8617 -23.0971 -33.3308 -15.9797 -23.0717 -33.816 -16.124 -23.0508 -34.2943 -16.2789 -23.0115 -34.7681 -16.4067 -22.9674 -35.2495 -16.5276 -22.9302 -35.7332 -16.6271 -22.8767 -36.2203 -16.6288 -22.8186 -36.7169 -16.6296 -22.7749 -37.215 -16.6161 -22.6706 -37.7038 -16.5606 -22.5722 -38.1909 -16.5427 -22.4666 -38.6793 -16.507 -22.3493 -39.164 -16.4653 -22.2323 -39.6483 -16.4206 -22.1138 -40.132 -16.3638 -22.0322 -40.622 -16.267 -21.9063 -41.0961 -16.1881 -21.7685 -41.5703 -16.1097 -21.6308 -42.0445 -16.0311 -21.4962 -42.5196 -15.9508 -21.4115 -43.0058 -15.842 -21.3719 -43.4922 -15.7414 -21.3254 -43.9797 -15.6167 -21.2768 -44.4615 -15.5069 -21.2304 -44.9471 -15.3971 -21.1838 -45.4326 -15.3141 -21.1509 -45.9246 -15.3079 -21.1123 -46.4231 -15.2798 -21.098 -46.9221 -15.2541 -21.0575 -47.4198 -15.2386 -21.0263 -47.9185 -15.2235 -21.0281 -48.4183 -15.21 -21.0374 -48.918 -15.1925 -21.0508 -49.4176 -15.1765 -21.0676 -49.917 -15.1381 -21.0795 -50.4154 -15.1041 -21.1001 -50.9138 -15.067 -21.1107 -51.4123 -15.0323 -21.1468 -51.9098 -15.0003 -21.2522 -52.3975 -15.0005 -21.2848 -52.8965 -15.0364 -21.308 -53.3946 -15.0786 -21.3024 -53.8928 -15.111 -21.2627 -54.3902 -15.1268 -21.2466 -54.8897 -15.1124 -21.2576 -55.3893 -15.111 -21.254 -55.7871 -0.276193 -0.380535 -1.37003 0.123825 -0.666026 -1.46212 0.515219 -0.958512 -1.56825 0.907622 -1.24999 -1.67341 1.29141 -1.55286 -1.77818 1.69682 -1.8358 -1.85293 2.0857 -2.14485 -1.91008 2.45682 -2.47735 -1.9514 2.86402 -2.76335 -2.00033 3.26469 -3.0426 -2.10751 3.6648 -3.33078 -2.19035 4.06466 -3.61942 -2.27279 4.45845 -3.91241 -2.36811 4.62575 -4.04642 -2.40899 -0.546967 -0.763556 -1.54317 -0.125127 -1.01928 -1.62474 0.285813 -1.28182 -1.73521 0.695033 -1.54635 -1.84728 1.12362 -1.78197 -1.95118 1.55037 -2.03158 -2.02592 1.97995 -2.27263 -2.11164 2.39216 -2.55132 -2.16082 2.82191 -2.79355 -2.24229 3.24359 -3.0544 -2.30671 3.66339 -3.31968 -2.36493 4.08719 -3.58175 -2.40634 4.49128 -3.8741 -2.44162 4.63887 -3.9874 -2.4555 -0.817616 -1.14888 -1.71132 -0.490362 -1.31907 -2.04887 -0.135954 -1.50384 -2.3493 0.233643 -1.67239 -2.64082 0.617119 -1.85072 -2.90755 0.999231 -2.02829 -3.17673 1.39354 -2.19507 -3.43501 1.78214 -2.3674 -3.69824 2.19673 -2.5285 -3.92662 2.59725 -2.69351 -4.17634 2.99705 -2.81306 -4.45178 3.39042 -2.92662 -4.73877 3.79404 -3.0808 -4.9904 3.91894 -3.12725 -5.06855 -1.08496 -1.53515 -1.88255 -1.08193 -1.68922 -1.40689 -1.09138 -1.83258 -0.927973 -1.13251 -2.01137 -0.462846 -1.12026 -2.20481 -0.00194459 -1.11301 -2.38807 0.463203 -1.10474 -2.57215 0.92801 -1.11922 -2.73789 1.39952 -1.09773 -2.93915 1.85672 -1.10624 -3.15886 2.30578 -1.10046 -3.37399 2.75709 -1.09503 -3.57628 3.21431 -1.04066 -3.79247 3.66187 -1.02528 -3.84828 3.76916 -1.393 -1.89785 -2.03605 -1.83376 -1.71308 -1.88911 -2.27215 -1.52343 -1.74131 -2.69651 -1.30213 -1.59657 -3.13755 -1.08981 -1.4946 -3.54651 -0.831798 -1.36739 -3.96337 -0.584676 -1.24424 -4.38272 -0.339392 -1.12601 -4.80439 -0.1041 -0.996292 -5.20266 0.141042 -0.819393 -5.58832 0.39495 -0.627567 -5.97422 0.648141 -0.43529 -6.35811 0.9075 -0.247249 -6.42612 0.954099 -0.214063 -1.68788 -2.28227 -2.15963 -2.03529 -1.96761 -2.3337 -2.38056 -1.6494 -2.50552 -2.72004 -1.3321 -2.69012 -3.02782 -0.992207 -2.88948 -3.35914 -0.668467 -3.07768 -3.68259 -0.344935 -3.27944 -4.01216 -0.0331032 -3.48955 -4.31369 0.280259 -3.7363 -4.59645 0.620865 -3.96875 -4.91125 0.908031 -4.23035 -5.22045 1.20964 -4.4822 -5.53144 1.50528 -4.73887 -5.56691 1.53757 -4.76645 -1.97246 -2.66169 -2.31789 -1.5624 -2.81394 -2.56011 -1.15129 -2.96637 -2.80044 -0.754533 -3.13756 -3.05198 -0.329694 -3.27573 -3.27653 0.0917461 -3.42818 -3.49823 0.51358 -3.54995 -3.73745 0.93198 -3.6691 -3.98391 1.35137 -3.78441 -4.23051 1.78461 -3.90842 -4.44714 2.21153 -4.04219 -4.6704 2.63301 -4.17808 -4.90255 3.05641 -4.3158 -5.13005 3.07434 -4.32174 -5.13991 -2.26421 -3.0573 -2.40942 -2.15987 -3.32806 -2.00223 -2.05592 -3.59821 -1.59453 -1.95113 -3.85995 -1.18161 -1.8179 -4.13541 -0.786165 -1.71615 -4.38163 -0.363051 -1.60212 -4.65397 0.0404678 -1.49676 -4.89057 0.468159 -1.3643 -5.10347 0.900742 -1.2367 -5.26731 1.35557 -1.10525 -5.44184 1.80531 -0.99026 -5.62394 2.25655 -0.852632 -5.81194 2.68394 -2.57311 -3.43792 -2.50797 -2.28453 -3.7172 -2.2101 -2.00107 -4.00681 -1.91723 -1.70584 -4.30515 -1.6455 -1.42946 -4.63131 -1.38621 -1.13829 -4.95311 -1.13789 -0.847523 -5.27621 -0.890778 -0.573571 -5.61207 -0.64148 -0.300231 -5.94734 -0.390727 -0.042933 -6.2756 -0.114969 0.212591 -6.60089 0.165913 0.477067 -6.94382 0.41581 0.724268 -7.24915 0.638805 -2.86979 -3.82453 -2.6198 -2.71544 -4.10737 -2.23747 -2.5589 -4.38874 -1.85493 -2.31135 -4.67218 -1.52573 -2.08121 -4.95705 -1.18531 -1.82805 -5.24122 -0.861026 -1.5225 -5.52155 -0.581655 -1.19593 -5.77804 -0.303145 -0.841153 -6.01816 -0.0453182 -0.477813 -6.25982 0.198778 -0.116977 -6.50903 0.438974 0.24996 -6.75351 0.674743 0.548798 -6.96476 0.872885 -3.19752 -4.1713 -2.76928 -2.89304 -4.39916 -3.09388 -2.5954 -4.68902 -3.37208 -2.29492 -4.9742 -3.65206 -1.96164 -5.24607 -3.90703 -1.63018 -5.53138 -4.14937 -1.30133 -5.80734 -4.4057 -0.976104 -6.11319 -4.63083 -0.660965 -6.42509 -4.86192 -0.331332 -6.69607 -5.12252 0.00500894 -6.97119 -5.36987 0.346778 -7.26585 -5.58521 0.611805 -7.4708 -5.76467 -3.50513 -4.54033 -2.90784 -3.40821 -4.53368 -3.39831 -3.36461 -4.59727 -3.89233 -3.32978 -4.65757 -4.38745 -3.29608 -4.72452 -4.8818 -3.32198 -4.76501 -5.37949 -3.31347 -4.73769 -5.87867 -3.31543 -4.72209 -6.37842 -3.30131 -4.72407 -6.87822 -3.2854 -4.72308 -7.37796 -3.28105 -4.65877 -7.87379 -3.277 -4.59476 -8.36966 -3.27982 -4.56396 -8.7117 -3.8038 -4.92229 -3.02991 -3.55902 -4.9897 -3.46065 -3.36036 -5.03701 -3.91704 -3.17174 -5.06352 -4.37934 -2.95066 -5.11346 -4.82502 -2.75024 -5.13801 -5.28243 -2.51553 -5.18824 -5.72106 -2.28975 -5.1885 -6.16718 -2.05202 -5.17722 -6.6069 -1.80459 -5.15374 -7.04075 -1.59122 -5.14047 -7.49274 -1.40124 -5.11716 -7.95466 -1.27909 -5.08933 -8.23411 -4.10757 -5.29887 -3.15604 -3.9423 -5.56728 -2.76791 -3.7887 -5.82457 -2.36765 -3.65233 -6.09537 -1.97007 -3.5174 -6.36659 -1.57228 -3.42017 -6.58374 -1.13252 -3.34655 -6.80662 -0.691035 -3.2299 -6.95533 -0.228133 -3.11474 -7.13248 0.225032 -3.03177 -7.37476 0.654468 -2.92445 -7.59381 1.09093 -2.80188 -7.81631 1.52159 -2.74925 -7.92037 1.76346 -4.41119 -5.67573 -3.28171 -4.19172 -6.02705 -3.0017 -3.96659 -6.38217 -2.73114 -3.73046 -6.72874 -2.45887 -3.47343 -7.05971 -2.18611 -3.23358 -7.40349 -1.91355 -2.95785 -7.75649 -1.69137 -2.6772 -8.09317 -1.45078 -2.38305 -8.39833 -1.18554 -2.13152 -8.70375 -0.879841 -1.87345 -9.01333 -0.583939 -1.61305 -9.32145 -0.288543 -1.49301 -9.46382 -0.153215 -4.69892 -6.05872 -3.42499 -4.57708 -5.93589 -3.89411 -4.44825 -5.81543 -4.36196 -4.30396 -5.67236 -4.81882 -4.16003 -5.53823 -5.27848 -4.0209 -5.40606 -5.74019 -3.90539 -5.28955 -6.2125 -3.74201 -5.16692 -6.66887 -3.58006 -5.03875 -7.12422 -3.41945 -4.9022 -7.57761 -3.25219 -4.75831 -8.02629 -3.11747 -4.63329 -8.49129 -3.06731 -4.58104 -8.66836 -4.96135 -6.45678 -3.57559 -4.93976 -6.2817 -4.04344 -4.93523 -6.09796 -4.50843 -4.95082 -5.92627 -4.97777 -4.95968 -5.75636 -5.44793 -4.98586 -5.58408 -5.91658 -5.01032 -5.41575 -6.38676 -5.04597 -5.25334 -6.8583 -5.05153 -5.10433 -7.33555 -5.06233 -4.96013 -7.81419 -5.08007 -4.8153 -8.29242 -5.10586 -4.67078 -8.77038 -5.11371 -4.6271 -8.91559 -5.18993 -6.85979 -3.76356 -4.76759 -7.03355 -3.96712 -4.37275 -7.22724 -4.20499 -3.97784 -7.42067 -4.44296 -3.59304 -7.63101 -4.68315 -3.1861 -7.83009 -4.89472 -2.78213 -7.98769 -5.14367 -2.38942 -8.16685 -5.39602 -1.98343 -8.34253 -5.62906 -1.58323 -8.52876 -5.86391 -1.18072 -8.70982 -6.09887 -0.781877 -8.87902 -6.34846 -0.690936 -8.91545 -6.40226 -5.40834 -7.26339 -3.96207 -5.39939 -7.63159 -3.62391 -5.42986 -8.00654 -3.29454 -5.48474 -8.38729 -2.97513 -5.54475 -8.77362 -2.66345 -5.58877 -9.17186 -2.36434 -5.60639 -9.56419 -2.05487 -5.6231 -9.93879 -1.72413 -5.64532 -10.3081 -1.38784 -5.61664 -10.6775 -1.05206 -5.59864 -11.0409 -0.709092 -5.58162 -11.4035 -0.365216 -5.58017 -11.4555 -0.316867 -5.63514 -7.65902 -4.16709 -5.67718 -8.06114 -3.87291 -5.70276 -8.46464 -3.57875 -5.72789 -8.87405 -3.29283 -5.75716 -9.28272 -3.00624 -5.81175 -9.68777 -2.71823 -5.85358 -10.114 -2.46022 -5.8844 -10.5501 -2.21754 -5.93242 -11.0068 -2.01975 -5.98051 -11.4636 -1.82229 -6.01751 -11.9254 -1.63418 -6.04167 -12.3872 -1.44411 -6.04275 -12.4149 -1.43312 -5.83218 -8.06849 -4.3757 -5.78921 -7.96636 -4.86326 -5.77701 -7.8638 -5.35248 -5.76488 -7.76474 -5.84242 -5.78964 -7.68664 -6.33566 -5.80772 -7.60745 -6.82902 -5.82311 -7.52702 -7.32227 -5.81615 -7.39088 -7.80333 -5.81563 -7.26805 -8.288 -5.77537 -7.1342 -8.76807 -5.72793 -7.0043 -9.24857 -5.6831 -6.85775 -9.71172 -6.01562 -8.49125 -4.56966 -6.37327 -8.45365 -4.22228 -6.73834 -8.41129 -3.88327 -7.11507 -8.37711 -3.5563 -7.49643 -8.37155 -3.23298 -7.85627 -8.38734 -2.88619 -8.20665 -8.38958 -2.5295 -8.58265 -8.38432 -2.19997 -8.95476 -8.3842 -1.86599 -9.34009 -8.38578 -1.54737 -9.72501 -8.38878 -1.22827 -10.0794 -8.40028 -0.958884 -6.18147 -8.9135 -4.7799 -6.60467 -8.77287 -5.00601 -7.02815 -8.625 -5.22692 -7.474 -8.50275 -5.41737 -7.91602 -8.36966 -5.60948 -8.34828 -8.25159 -5.83132 -8.78115 -8.13616 -6.05335 -9.17309 -7.96755 -6.31403 -9.58221 -7.81586 -6.55819 -9.98127 -7.64709 -6.80772 -10.3875 -7.48781 -7.05189 -10.7201 -7.36661 -7.24241 -6.36469 -9.32606 -4.99488 -6.81625 -9.1167 -5.04244 -7.27106 -8.91494 -5.0919 -7.72499 -8.7095 -5.13358 -8.18546 -8.51478 -5.1265 -8.655 -8.34326 -5.11568 -9.12198 -8.16578 -5.09493 -9.59058 -7.99734 -5.04972 -10.0456 -7.79008 -5.04694 -10.5008 -7.58327 -5.04641 -10.9504 -7.36787 -5.08539 -11.2761 -7.21925 -5.09488 -6.55612 -9.75623 -5.16314 -6.75631 -9.67357 -5.6138 -6.95371 -9.59032 -6.06557 -7.13703 -9.52248 -6.52578 -7.31904 -9.4546 -6.9865 -7.49684 -9.38709 -7.44892 -7.68867 -9.27796 -7.89758 -7.85425 -9.23292 -8.36721 -8.02287 -9.13373 -8.82735 -8.19409 -9.03453 -9.28653 -8.35343 -8.9458 -9.75207 -8.46644 -8.90108 -10.0412 -6.7258 -10.1821 -5.36271 -7.21326 -10.0711 -5.3698 -7.69953 -9.95639 -5.38947 -8.18537 -9.84006 -5.41016 -8.65914 -9.69975 -5.48669 -9.13935 -9.56225 -5.50888 -9.60285 -9.3748 -5.51468 -10.0774 -9.21836 -5.49568 -10.5333 -9.02282 -5.43326 -10.9961 -8.83939 -5.38673 -11.4687 -8.68392 -5.33732 -11.7223 -8.60014 -5.31144 -6.89381 -10.6048 -5.57028 -6.93907 -10.8702 -5.14891 -6.99579 -11.1355 -4.72894 -7.0771 -11.4021 -4.31381 -7.17712 -11.6373 -3.88408 -7.26772 -11.8887 -3.46149 -7.33624 -12.1427 -3.03627 -7.38634 -12.4039 -2.61289 -7.43849 -12.6646 -2.18942 -7.47155 -12.8986 -1.74879 -7.51787 -13.1545 -1.32177 -7.54475 -13.2742 -1.13629 -7.07982 -11.0186 -5.78056 -6.84978 -10.9759 -6.22244 -6.62126 -10.9246 -6.6642 -6.37793 -10.8957 -7.10003 -6.11301 -10.8787 -7.52375 -5.83712 -10.8791 -7.94074 -5.50558 -10.8556 -8.31427 -5.17898 -10.819 -8.69109 -4.85061 -10.7759 -9.06568 -4.53984 -10.754 -9.45676 -4.2479 -10.7374 -9.86234 -4.14917 -10.734 -10.0077 -7.21154 -11.4494 -5.99746 -6.98677 -11.4394 -6.44398 -6.73347 -11.4297 -6.87496 -6.50369 -11.425 -7.31901 -6.27188 -11.4221 -7.76201 -6.03535 -11.4241 -8.20253 -5.82857 -11.4423 -8.6574 -5.57991 -11.4226 -9.09073 -5.32512 -11.4024 -9.52047 -5.0822 -11.4107 -9.95742 -4.83105 -11.4224 -10.3896 -4.76949 -11.4233 -10.5022 -7.36348 -11.8656 -6.22914 -7.65819 -11.5696 -6.50398 -7.92822 -11.2661 -6.79545 -8.17628 -10.9238 -7.06241 -8.39546 -10.5785 -7.35004 -8.61578 -10.2281 -7.63056 -8.82997 -9.86745 -7.90271 -9.04516 -9.50791 -8.17552 -9.26182 -9.14799 -8.44665 -9.49946 -8.80491 -8.72202 -9.7311 -8.45134 -8.9891 -9.7676 -8.39452 -9.03232 -7.5398 -12.2673 -6.469 -7.11242 -12.4833 -6.61293 -6.68878 -12.7055 -6.7583 -6.27044 -12.884 -6.96598 -5.85533 -13.0888 -7.15504 -5.44569 -13.3011 -7.3478 -5.02363 -13.5012 -7.5261 -4.58034 -13.6717 -7.68243 -4.13711 -13.8499 -7.83005 -3.69026 -14.0158 -7.981 -3.27096 -14.1876 -8.19237 -3.24496 -14.1987 -8.20582 -7.73811 -12.6355 -6.7431 -7.50681 -12.6451 -7.18628 -7.27464 -12.6545 -7.62901 -7.03348 -12.6409 -8.06679 -6.77794 -12.6303 -8.49643 -6.49482 -12.7197 -8.89873 -6.28714 -12.8226 -9.34175 -6.07133 -12.9272 -9.78049 -5.84508 -13.0565 -10.2072 -5.61478 -13.1726 -10.6356 -5.3992 -13.2658 -11.0561 -7.93519 -13.0044 -7.01705 -7.82688 -13.3139 -6.63952 -7.70484 -13.6204 -6.26383 -7.5589 -13.9424 -5.91025 -7.42412 -14.2771 -5.56417 -7.33648 -14.6154 -5.2065 -7.23361 -14.9535 -4.85285 -7.13105 -15.2936 -4.50096 -6.97604 -15.6406 -4.17606 -6.82109 -15.988 -3.85152 -6.71142 -16.299 -3.57379 -8.11903 -13.3629 -7.31321 -8.57846 -13.173 -7.25989 -9.0372 -12.9814 -7.2064 -9.4962 -12.7896 -7.15594 -9.94288 -12.5952 -7.04332 -10.3895 -12.3844 -6.96519 -10.8244 -12.1494 -6.89004 -11.2589 -11.9137 -6.81478 -11.6866 -11.6715 -6.72319 -12.1208 -11.4366 -6.6443 -12.4499 -11.255 -6.58838 -8.32084 -13.688 -7.63503 -8.23065 -13.3104 -7.95014 -8.1519 -12.9455 -8.2828 -8.07063 -12.5815 -8.61579 -7.98727 -12.2229 -8.95411 -7.94521 -11.8727 -9.30849 -7.90797 -11.5139 -9.65471 -7.88501 -11.1666 -10.0137 -7.89741 -10.7964 -10.3496 -7.89445 -10.4255 -10.6848 -7.88676 -10.1839 -10.9064 -8.49923 -13.9973 -7.98505 -8.93473 -13.7594 -7.9237 -9.36879 -13.512 -7.90484 -9.80204 -13.2628 -7.89044 -10.2267 -12.999 -7.90051 -10.6547 -12.7408 -7.9113 -11.0791 -12.4769 -7.92666 -11.5138 -12.2299 -7.92386 -11.9407 -11.9804 -7.99847 -12.36 -11.7193 -8.07572 -12.5802 -11.5614 -8.12316 -8.68751 -14.302 -8.33388 -9.13685 -14.0838 -8.31266 -9.59154 -13.8787 -8.27803 -10.0465 -13.6727 -8.25522 -10.5002 -13.4665 -8.23944 -10.9591 -13.2749 -8.29162 -11.4184 -13.0857 -8.34831 -11.8855 -12.9376 -8.44783 -12.3463 -12.7847 -8.56761 -12.7875 -12.5967 -8.70879 -12.9813 -12.5111 -8.77776 -8.87963 -14.5735 -8.70723 -9.29322 -14.3281 -8.84408 -9.68326 -14.0326 -8.94657 -10.0665 -13.7192 -9.01675 -10.4498 -13.405 -9.08304 -10.8573 -13.1234 -9.15105 -11.2638 -12.8406 -9.2204 -11.6608 -12.5513 -9.31356 -12.055 -12.2593 -9.41018 -12.4585 -11.9866 -9.52335 -12.5936 -11.8968 -9.56203 -9.1068 -14.8405 -9.06376 -9.19124 -15.117 -8.65583 -9.27132 -15.3969 -8.2493 -9.35895 -