<?xml version="1.0"?><VTKFile type="PolyData" version="0.1" byte_order="LittleEndian">
<PolyData>
<Piece NumberOfLines="26" NumberOfPoints="190">
<PointData Scalars=" PointData">
<DataArray type="Float32" Name="time" NumberOfComponents="1" format="ascii" >
0 0.128339 0.256945 0.385821 0.514967 0.644385 0.774075 0.904038 1.03428 1.16479 1.29558 1.42665 1.558 1.68963 1.82154 1.95374 2.08622 2.21898 2.35204 2.48538 2.61901 2.75293 2.88714 3.02164 3.15644 3.29154 3.42693 3.56262 3.69861 3.8349 3.97149 4.10839 4.24559 4.3831 4.52091 4.65904 4.79747 4.93622 5.07528 5.21466 5.35435 5.49435 5.63468 5.77533 5.9163 6.05759 6.19921 6.34116 6.48343 6.62603 6.76896 6.91223 7.05583 7.19976 7.34404 7.48865 7.6336 7.77889 7.92453 8.07051 8.21684 8.36352 8.51054 8.65792 8.80565 8.95374 9.10219 9.25099 9.40016 9.54968 9.69957 9.84983 10 6.61176 7.29811 8.02712 8.80445 9.63695 10 6.75466 7.44101 8.17002 8.94735 9.77985 10 6.89789 7.58424 8.31326 9.09058 9.92308 10 7.04145 7.72781 8.45682 9.23415 10 7.18536 7.87171 8.60072 9.37805 10 7.32959 8.01595 8.74496 9.52229 10 7.47417 8.16053 8.88954 9.66687 10 7.61909 8.30544 9.03446 9.81178 10 7.76435 8.4507 9.17971 9.95704 10 7.90995 8.5963 9.32532 10 8.0559 8.74225 9.47126 10 8.20219 8.88855 9.61756 10 8.34883 9.03519 9.7642 10 8.49582 9.18218 9.91119 10 8.64317 9.32952 10 8.79087 9.47722 10 8.93892 9.62527 10 9.08733 9.77368 10 9.2361 9.92245 10 9.38522 10 9.53471 10 9.68457 10 9.83478 10 9.98537 10 7 7.12834 7.25695 7.38582 7.51497 7.64438 7.77407 7.90404 8.03428 8.16479 8.29558 8.42665 8.558 8.68963 8.82154 8.95374 9.08622 9.21898 9.35204 9.48538 9.61901 9.75293 9.88714 10 
</DataArray>

</PointData>
<CellData Scalars=" CellData">
<DataArray type="Float32" Name="radius" NumberOfComponents="1" format="ascii" >
0.13 0.05 0.05 0.05 0.05 0.05 0.05 0.05 0.05 0.05 0.05 0.05 0.05 0.05 0.05 0.05 0.05 0.05 0.05 0.05 0.05 0.05 0.05 0.05 0.05 0.13 
</DataArray>
<DataArray type="Float32" Name="subType" NumberOfComponents="1" format="ascii" >
1 2 2 2 2 2 2 2 2 2 2 2 2 2 2 2 2 2 2 2 2 2 2 2 2 4 
</DataArray>
<DataArray type="Float32" Name="creationTime" NumberOfComponents="1" format="ascii" >
0 6.61176 6.75466 6.89789 7.04145 7.18536 7.32959 7.47417 7.61909 7.76435 7.90995 8.0559 8.20219 8.34883 8.49582 8.64317 8.79087 8.93892 9.08733 9.2361 9.38522 9.53471 9.68457 9.83478 9.98537 7 
</DataArray>

</CellData>
<Points>
<DataArray type="Float32" Name="Coordinates" NumberOfComponents="3" format="ascii" >
0 0 -1.2 -0.276193 -0.380535 -1.37003 -0.546967 -0.763556 -1.54317 -0.817616 -1.14888 -1.71132 -1.08496 -1.53515 -1.88255 -1.393 -1.89785 -2.03605 -1.68788 -2.28227 -2.15963 -1.97246 -2.66169 -2.31789 -2.26421 -3.0573 -2.40942 -2.57311 -3.43792 -2.50797 -2.86979 -3.82453 -2.6198 -3.19752 -4.1713 -2.76928 -3.50513 -4.54033 -2.90784 -3.8038 -4.92229 -3.02991 -4.10757 -5.29887 -3.15604 -4.41119 -5.67573 -3.28171 -4.69892 -6.05872 -3.42499 -4.96135 -6.45678 -3.57559 -5.18993 -6.85979 -3.76356 -5.40834 -7.26339 -3.96207 -5.63514 -7.65902 -4.16709 -5.83218 -8.06849 -4.3757 -6.01562 -8.49125 -4.56966 -6.18147 -8.9135 -4.7799 -6.36469 -9.32606 -4.99488 -6.55612 -9.75623 -5.16314 -6.7258 -10.1821 -5.36271 -6.89381 -10.6048 -5.57028 -7.07982 -11.0186 -5.78056 -7.21154 -11.4494 -5.99746 -7.36348 -11.8656 -6.22914 -7.5398 -12.2673 -6.469 -7.73811 -12.6355 -6.7431 -7.93519 -13.0044 -7.01705 -8.11903 -13.3629 -7.31321 -8.32084 -13.688 -7.63503 -8.49923 -13.9973 -7.98505 -8.68751 -14.302 -8.33388 -8.87963 -14.5735 -8.70723 -9.1068 -14.8405 -9.06376 -9.31867 -15.108 -9.42923 -9.53163 -15.3527 -9.80974 -9.72973 -15.61 -10.1899 -9.90385 -15.863 -10.5844 -10.0736 -16.1483 -10.9583 -10.246 -16.4494 -11.3184 -10.3577 -16.7204 -11.7235 -10.4093 -16.986 -12.144 -10.4876 -17.2566 -12.557 -10.5828 -17.4799 -12.9942 -10.6757 -17.7105 -13.4279 -10.7805 -17.9416 -13.8588 -10.8897 -18.1685 -14.2907 -10.9751 -18.3666 -14.7418 -11.0623 -18.5556 -15.1964 -11.1455 -18.7504 -15.6493 -11.2359 -18.9302 -16.1071 -11.3325 -19.1217 -16.5587 -11.468 -19.2765 -17.0144 -11.6028 -19.4258 -17.4722 -11.7953 -19.5774 -17.9081 -11.9477 -19.7533 -18.3506 -12.1252 -19.904 -18.793 -12.3039 -20.071 -19.2291 -12.4748 -20.2418 -19.6669 -12.623 -20.4164 -20.1113 -12.7751 -20.5899 -20.5549 -12.9222 -20.7512 -21.0047 -13.0703 -20.9112 -21.4547 -13.2021 -21.0507 -21.9164 -13.3027 -21.1974 -22.3837 -13.4285 -21.3072 -22.855 -13.5244 -21.4635 -23.3186 -0.276193 -0.380535 -1.37003 0.123825 -0.666026 -1.46212 0.515219 -0.958512 -1.56825 0.907622 -1.24999 -1.67341 1.29141 -1.55286 -1.77818 1.45436 -1.67499 -1.81635 -0.546967 -0.763556 -1.54317 -0.125127 -1.01928 -1.62474 0.285813 -1.28182 -1.73521 0.695033 -1.54635 -1.84728 1.12362 -1.78197 -1.95118 1.23219 -1.84285 -1.97317 -0.817616 -1.14888 -1.71132 -0.490362 -1.31907 -2.04887 -0.135954 -1.50384 -2.3493 0.233643 -1.67239 -2.64082 0.617119 -1.85072 -2.90755 0.65121 -1.86649 -2.93128 -1.08496 -1.53515 -1.88255 -1.08193 -1.68922 -1.40689 -1.09138 -1.83258 -0.927973 -1.13251 -2.01137 -0.462846 -1.11283 -2.14737 -0.022528 -1.393 -1.89785 -2.03605 -1.83376 -1.71308 -1.88911 -2.27215 -1.52343 -1.74131 -2.69651 -1.30213 -1.59657 -3.01604 -1.1328 -1.49044 -1.68788 -2.28227 -2.15963 -2.03529 -1.96761 -2.3337 -2.38056 -1.6494 -2.50552 -2.72004 -1.3321 -2.69012 -2.91242 -1.14104 -2.79646 -1.97246 -2.66169 -2.31789 -1.5624 -2.81394 -2.56011 -1.15129 -2.96637 -2.80044 -0.754533 -3.13756 -3.05198 -0.589921 -3.20545 -3.15224 -2.26421 -3.0573 -2.40942 -2.15987 -3.32806 -2.00223 -2.05592 -3.59821 -1.59453 -1.95113 -3.85995 -1.18161 -1.92576 -3.92144 -1.08636 -2.57311 -3.43792 -2.50797 -2.28453 -3.7172 -2.2101 -2.00107 -4.00681 -1.91723 -1.70584 -4.30515 -1.6455 -1.69048 -4.32195 -1.63159 -2.86979 -3.82453 -2.6198 -2.71544 -4.10737 -2.23747 -2.5589 -4.38874 -1.85493 -2.39349 -4.64679 -1.54507 -3.19752 -4.1713 -2.76928 -2.89304 -4.39916 -3.09388 -2.5954 -4.68902 -3.37208 -2.39518 -4.89136 -3.56466 -3.50513 -4.54033 -2.90784 -3.40821 -4.53368 -3.39831 -3.36461 -4.59727 -3.89233 -3.34611 -4.62728 -4.13997 -3.8038 -4.92229 -3.02991 -3.55902 -4.9897 -3.46065 -3.36036 -5.03701 -3.91704 -3.30166 -5.04567 -4.06044 -4.10757 -5.29887 -3.15604 -3.9423 -5.56728 -2.76791 -3.7887 -5.82457 -2.36765 -3.77264 -5.85575 -2.32043 -4.41119 -5.67573 -3.28171 -4.19172 -6.02705 -3.0017 -3.97264 -6.34583 -2.75092 -4.69892 -6.05872 -3.42499 -4.57708 -5.93589 -3.89411 -4.49442 -5.86305 -4.23861 -4.96135 -6.45678 -3.57559 -4.93976 -6.2817 -4.04344 -4.93381 -6.18479 -4.28558 -5.18993 -6.85979 -3.76356 -4.76759 -7.03355 -3.96712 -4.63534 -7.09006 -4.03389 -5.40834 -7.26339 -3.96207 -5.39939 -7.63159 -3.62391 -5.39799 -7.67194 -3.58704 -5.63514 -7.65902 -4.16709 -5.67174 -8.01451 -3.89491 -5.83218 -8.06849 -4.3757 -5.80393 -7.99598 -4.70887 -6.01562 -8.49125 -4.56966 -6.19564 -8.47338 -4.42215 -6.18147 -8.9135 -4.7799 -6.28046 -8.87159 -4.83976 -6.36469 -9.32606 -4.99488 -6.37469 -9.3217 -4.99598 0 0 -1.2 -0.445368 0.137553 -1.38091 -0.889315 0.283527 -1.55868 -1.35005 0.336064 -1.74567 -1.80964 0.376578 -1.93837 -2.26868 0.417016 -2.13239 -2.72875 0.454547 -2.32456 -3.20305 0.469864 -2.48205 -3.68262 0.466973 -2.6235 -4.13983 0.375347 -2.80396 -4.60751 0.289869 -2.95876 -5.07815 0.280157 -3.12729 -5.54922 0.269717 -3.29459 -6.01854 0.26418 -3.46695 -6.481 0.265069 -3.65704 -6.93652 0.266424 -3.86317 -7.39676 0.31232 -4.05312 -7.85709 0.353607 -4.24388 -8.2882 0.405796 -4.49171 -8.72388 0.460551 -4.73084 -9.15691 0.532175 -4.97034 -9.58118 0.616217 -5.22118 -10.0015 0.689362 -5.48194 -10.3526 0.727673 -5.70857 
</DataArray>
</Points>
<Lines>
<DataArray type="Int32" Name="connectivity" NumberOfComponents="1" format="ascii" >
0 1 2 3 4 5 6 7 8 9 10 11 12 13 14 15 16 17 18 19 20 21 22 23 24 25 26 27 28 29 30 31 32 33 34 35 36 37 38 39 40 41 42 43 44 45 46 47 48 49 50 51 52 53 54 55 56 57 58 59 60 61 62 63 64 65 66 67 68 69 70 71 72 73 74 75 76 77 78 79 80 81 82 83 84 85 86 87 88 89 90 91 92 93 94 95 96 97 98 99 100 101 102 103 104 105 106 107 108 109 110 111 112 113 114 115 116 117 118 119 120 121 122 123 124 125 126 127 128 129 130 131 132 133 134 135 136 137 138 139 140 141 142 143 144 145 146 147 148 149 150 151 152 153 154 155 156 157 158 159 160 161 162 163 164 165 166 167 168 169 170 171 172 173 174 175 176 177 178 179 180 181 182 183 184 185 186 187 188 189 
</DataArray>
<DataArray type="Int32" Name="offsets" NumberOfComponents="1" format="ascii" >
73 79 85 91 96 101 106 111 116 121 125 129 133 137 141 144 147 150 153 156 158 160 162 164 166 190 
</DataArray>

</Lines>
</Piece>
</PolyData>
</VTKFile>
