<?xml version="1.0"?><VTKFile type="PolyData" version="0.1" byte_order="LittleEndian">
<PolyData>
<Piece NumberOfLines="1" NumberOfPoints="42">
<PointData Scalars=" PointData">
<DataArray type="Float32" Name="time" NumberOfComponents="1" format="ascii" >
0 0.140992 0.28228 0.423865 0.565748 0.70793 0.850412 0.993197 1.13628 1.27968 1.42337 1.56738 1.71169 1.85631 2.00125 2.14649 2.29205 2.43793 2.58412 2.73062 2.87745 3.0246 3.17207 3.31986 3.46798 3.61642 3.7652 3.9143 4.06373 4.21349 4.36359 4.51402 4.66479 4.81589 4.96734 5.11913 5.27126 5.42373 5.57655 5.72972 5.88323 6 
</DataArray>

</PointData>
<CellData Scalars=" CellData">
<DataArray type="Float32" Name="radius" NumberOfComponents="1" format="ascii" >
0.13 
</DataArray>
<DataArray type="Float32" Name="subType" NumberOfComponents="1" format="ascii" >
1 
</DataArray>
<DataArray type="Float32" Name="creationTime" NumberOfComponents="1" format="ascii" >
0 
</DataArray>

</CellData>
<Points>
<DataArray type="Float32" Name="Coordinates" NumberOfComponents="3" format="ascii" >
0 0 -1.2 0.372356 0.221764 -1.44934 0.736594 0.452865 -1.70217 1.10361 0.674176 -1.9597 1.46118 0.90565 -2.22154 1.78452 1.16765 -2.49869 2.09955 1.43245 -2.78265 2.41298 1.69557 -3.06994 2.68006 1.96481 -3.39579 2.91448 2.17664 -3.78331 3.12607 2.37242 -4.19185 3.28576 2.584 -4.61579 3.43412 2.7922 -5.04549 3.57292 3.01077 -5.47323 3.71495 3.1876 -5.91883 3.85464 3.34628 -6.37194 4.02364 3.52923 -6.80549 4.24071 3.7133 -7.21659 4.44064 3.93145 -7.61962 4.59857 4.13954 -8.04595 4.75904 4.34638 -8.47194 4.90871 4.51344 -8.91881 5.06189 4.68087 -9.36435 5.21307 4.84765 -9.81081 5.32527 5.04207 -10.2576 5.42764 5.22664 -10.7109 5.46365 5.39061 -11.1818 5.51121 5.54932 -11.6536 5.55188 5.70652 -12.1265 5.61401 5.87287 -12.5939 5.66154 6.02934 -13.0664 5.70348 6.15382 -13.5488 5.75051 6.27705 -14.0311 5.80211 6.36354 -14.5209 5.86889 6.43083 -15.0118 5.93037 6.48387 -15.5052 5.9841 6.53891 -15.9992 6.00519 6.53756 -16.4988 5.97859 6.50142 -16.9967 5.9918 6.43909 -17.4927 6.02202 6.34853 -17.9835 6.04495 6.27978 -18.356 
</DataArray>
</Points>
<Lines>
<DataArray type="Int32" Name="connectivity" NumberOfComponents="1" format="ascii" >
0 1 2 3 4 5 6 7 8 9 10 11 12 13 14 15 16 17 18 19 20 21 22 23 24 25 26 27 28 29 30 31 32 33 34 35 36 37 38 39 40 41 
</DataArray>
<DataArray type="Int32" Name="offsets" NumberOfComponents="1" format="ascii" >
42 
</DataArray>

</Lines>
</Piece>
</PolyData>
</VTKFile>
