<?xml version="1.0"?><VTKFile type="PolyData" version="0.1" byte_order="LittleEndian">
<PolyData>
<Piece NumberOfLines="88" NumberOfPoints="609">
<PointData Scalars=" PointData">
<DataArray type="Float32" Name="time" NumberOfComponents="1" format="ascii" >
0 0.364058 0.629416 0.883868 1.13946 1.27414 1.39848 1.54031 1.72943 1.82668 2.01132 2.2582 2.3222 2.61594 2.70177 2.80248 2.86259 3.09769 3.09988 3.28535 3.46307 3.62942 3.93158 4.21034 4.28323 4.28547 4.5418 4.76109 4.76109 4.76957 5.02287 5.20141 5.37228 5.40749 5.6227 5.84143 6.01231 6.19533 6.42049 6.61562 6.88755 7.15571 7.45115 7.69172 7.96533 8.14503 8.1482 8.31981 8.46152 8.54936 8.71419 9.06489 9.26858 9.49025 9.66935 9.87759 9.99618 10 4.12968 4.35095 4.50295 4.65876 4.81856 4.98257 5.15101 5.32412 5.50219 5.68549 5.87435 6.06912 6.27016 6.47791 6.69282 6.91542 7.14625 7.38597 7.63528 7.89498 8.16597 8.44929 8.7461 9.05776 9.38583 9.73213 10 6.47791 6.85798 7.27864 7.74961 8.28458 8.90373 9.63859 10 6.69282 7.07481 7.50244 7.98815 8.55022 9.2172 10 6.91542 7.29725 7.72436 8.20893 8.76886 9.43199 10 7.14625 7.53012 7.96475 8.46567 9.05679 9.77788 10 7.38597 7.76796 8.19561 8.68135 9.24348 9.91058 10 7.63528 8.01961 8.45599 8.96077 9.55945 10 7.89498 8.27738 8.70658 9.19563 9.76398 10 8.16597 8.54747 8.97333 9.45523 10 8.44929 8.82918 9.24922 9.71891 10 8.7461 9.1292 9.56099 10 9.05776 9.43945 9.86603 10 9.38583 9.7695 10 9.73213 10 4.4228 4.8003 5.21182 5.66411 6.16616 6.73026 7.37397 8.12349 9.02059 10 4.70409 5.08555 5.51127 5.99289 6.54735 7.20066 7.99588 9.01228 10 4.98683 5.36807 5.79298 6.27286 6.8241 7.47169 8.25658 9.25311 10 5.1359 5.35691 5.50843 5.66348 5.82222 5.98483 6.1515 6.32245 6.4979 6.67809 6.86329 7.05378 7.24987 7.45191 7.66026 7.87533 8.09757 8.32748 8.5656 8.81254 9.06898 9.33569 9.6135 9.9034 10 7.45191 7.83427 8.26331 8.75204 9.31977 9.99709 10 7.66026 8.04509 8.48339 8.99244 9.59958 10 7.87533 8.25482 8.67341 9.14009 9.66736 10 8.09757 8.48235 8.92046 9.42908 10 8.32748 8.7079 9.12986 9.60353 10 8.5656 8.94403 9.35884 9.81777 10 8.81254 9.19231 9.61192 10 9.06898 9.44727 9.86158 10 9.33569 9.71466 10 9.6135 9.99875 10 9.9034 10 5.27357 5.65777 6.09367 6.59738 7.19396 7.92556 8.87174 10 5.43067 5.65259 5.80581 5.96354 6.12605 6.29363 6.46663 6.64539 6.83031 7.02185 7.22047 7.42674 7.64126 7.86472 8.09791 8.34169 8.59709 8.86526 9.14755 9.44553 9.76106 10 7.86472 8.24913 8.68581 9.19124 9.79121 10 8.09791 8.47997 8.90791 9.39427 9.95755 10 8.34169 8.72449 9.15514 9.64735 10 8.59709 8.97918 9.40724 9.89383 10 8.86526 9.25108 9.69315 10 9.14755 9.53495 9.98313 10 9.44553 9.82811 10 9.76106 10 5.64025 5.86244 6.01616 6.17469 6.33833 6.50743 6.68236 6.86354 7.05143 7.24655 7.44947 7.66086 7.88143 8.11204 8.35363 8.60731 8.87434 9.15622 9.45468 9.77181 10 8.11204 8.49281 8.91601 9.39231 9.93697 10 8.35363 8.73684 9.16902 9.66456 10 8.60731 8.99305 9.43481 9.95168 10 8.87434 9.25203 9.66425 10 9.15622 9.53662 9.95849 10 9.45468 9.84178 10 9.77181 10 5.74807 6.12952 6.55523 7.03682 7.5912 8.24439 9.03939 10 5.95284 6.33747 6.77497 7.28224 7.88583 8.6311 9.60565 10 6.22683 6.60988 7.04147 7.53571 8.11394 8.81065 9.68726 10 6.29788 6.68054 7.11065 7.60169 8.1738 8.85916 9.71395 10 6.62418 6.84536 6.9972 7.15274 7.31217 7.47568 7.64351 7.81586 7.99301 8.17521 8.36278 8.55603 8.75532 8.96105 9.17363 9.39354 9.6213 9.85751 10 8.96105 9.34336 9.77222 10 9.17363 9.55947 10 9.39354 9.77454 10 9.6213 10 9.85751 10 6.71958 6.9415 7.09472 7.25245 7.41495 7.58254 7.75553 7.93429 8.11922 8.31075 8.50938 8.71565 8.93017 9.15363 9.38681 9.6306 9.88599 10 9.15363 9.53542 9.96234 10 9.38681 9.76713 10 9.6306 10 9.88599 10 6.83155 7.05312 7.20568 7.36237 7.52341 7.68905 7.85957 8.03525 8.21643 8.40345 8.5967 8.79662 9.00368 9.21841 9.44141 9.67332 9.9149 10 9.21841 9.60011 10 9.44141 9.82274 10 9.67332 10 9.9149 10 6.8984 7.2822 7.71659 8.21697 8.80704 9.52613 10 7.15994 7.54093 7.96491 8.44286 8.99053 9.63179 10 7.16239 7.54877 7.99303 8.5156 9.15011 9.958 10 7.36886 7.59078 7.744 7.90172 8.06423 8.23182 8.40481 8.58357 8.7685 8.96003 9.15866 9.36492 9.57945 9.80291 10 9.80291 10 7.5668 7.94855 8.37532 8.85918 9.4178 10 7.75218 8.13106 8.54748 9.00969 9.52904 10 8.08915 8.47168 8.90133 9.39136 9.96157 10 8.40029 8.78069 9.20254 9.67601 10 8.4817 8.70452 8.85946 9.01993 9.18635 9.35917 9.5389 9.72613 9.9215 10 8.4842 8.86984 9.31119 9.82712 10 8.77062 9.15148 9.57503 10 9.01582 9.23739 9.38995 9.54664 9.70768 9.87332 10 9.01582 9.2375 9.39027 9.54729 9.70879 9.87504 10 9.0253 9.40632 9.83045 10 9.30875 9.53043 9.68321 9.84022 10 9.50869 9.89203 10 9.70013 10 9.73959 9.96151 10 9.98089 10 
</DataArray>

</PointData>
<CellData Scalars=" CellData">
<DataArray type="Float32" Name="radius" NumberOfComponents="1" format="ascii" >
0.023 0.023 0.008 0.008 0.008 0.008 0.008 0.008 0.008 0.008 0.008 0.008 0.008 0.008 0.008 0.008 0.008 0.008 0.023 0.008 0.008 0.008 0.008 0.008 0.008 0.008 0.008 0.008 0.008 0.008 0.008 0.023 0.008 0.008 0.008 0.008 0.008 0.008 0.008 0.008 0.023 0.008 0.008 0.008 0.008 0.008 0.008 0.008 0.008 0.008 0.008 0.008 0.023 0.008 0.008 0.008 0.008 0.008 0.023 0.008 0.008 0.008 0.008 0.023 0.008 0.008 0.008 0.008 0.008 0.008 0.008 0.023 0.008 0.008 0.008 0.008 0.008 0.023 0.008 0.008 0.023 0.023 0.008 0.023 0.008 0.008 0.023 0.008 
</DataArray>
<DataArray type="Float32" Name="subType" NumberOfComponents="1" format="ascii" >
1 2 3 3 3 3 3 3 3 3 3 3 3 3 3 3 3 3 2 3 3 3 3 3 3 3 3 3 3 3 3 2 3 3 3 3 3 3 3 3 2 3 3 3 3 3 3 3 3 3 3 3 2 3 3 3 3 3 2 3 3 3 3 2 3 3 3 3 3 3 3 2 3 3 3 3 3 2 3 3 2 2 3 2 3 3 2 3 
</DataArray>
<DataArray type="Float32" Name="creationTime" NumberOfComponents="1" format="ascii" >
0 4.12968 6.47791 6.69282 6.91542 7.14625 7.38597 7.63528 7.89498 8.16597 8.44929 8.7461 9.05776 9.38583 9.73213 4.4228 4.70409 4.98683 5.1359 7.45191 7.66026 7.87533 8.09757 8.32748 8.5656 8.81254 9.06898 9.33569 9.6135 9.9034 5.27357 5.43067 7.86472 8.09791 8.34169 8.59709 8.86526 9.14755 9.44553 9.76106 5.64025 8.11204 8.35363 8.60731 8.87434 9.15622 9.45468 9.77181 5.74807 5.95284 6.22683 6.29788 6.62418 8.96105 9.17363 9.39354 9.6213 9.85751 6.71958 9.15363 9.38681 9.6306 9.88599 6.83155 9.21841 9.44141 9.67332 9.9149 6.8984 7.15994 7.16239 7.36886 9.80291 7.5668 7.75218 8.08915 8.40029 8.4817 8.4842 8.77062 9.01582 9.01582 9.0253 9.30875 9.50869 9.70013 9.73959 9.98089 
</DataArray>

</CellData>
<Points>
<DataArray type="Float32" Name="Coordinates" NumberOfComponents="3" format="ascii" >
0 0 -3 -0.0022042 -0.0131529 -3.99991 -0.00256086 -0.0171604 -4.72277 0.00510896 -0.00313471 -5.41102 0.0114648 0.0121116 -6.09772 0.0188055 0.0263668 -6.45744 0.0224747 0.038025 -6.78852 -0.00444944 0.0418853 -7.16414 -0.0293193 0.0199107 -7.66301 -0.0332251 0.0109462 -7.91895 -0.0429934 -0.00714101 -8.403 -0.048293 0.000836583 -9.04708 -0.0447415 -0.000603715 -9.21334 -0.0121136 0.0257176 -9.97186 -0.0197397 0.0331927 -10.1925 -0.0349131 0.0415063 -10.4504 -0.0472459 0.0449541 -10.6039 -0.110506 0.0597697 -11.2002 -0.111093 0.0599091 -11.2058 -0.157697 0.0757636 -11.6738 -0.232171 0.0987479 -12.1158 -0.31646 0.104625 -12.5254 -0.466855 0.115848 -13.2651 -0.5844 0.047844 -13.9428 -0.618243 0.0323697 -14.1188 -0.619311 0.0319793 -14.1242 -0.70382 0.00458986 -14.7477 -0.769334 -0.0320334 -15.2779 -0.769335 -0.0320341 -15.2779 -0.771875 -0.033294 -15.2983 -0.833774 -0.068852 -15.9087 -0.851114 -0.105548 -16.3375 -0.876675 -0.137766 -16.7458 -0.88171 -0.144042 -16.8297 -0.930355 -0.169503 -17.3404 -0.946317 -0.196889 -17.8586 -0.958915 -0.220802 -18.2612 -0.960527 -0.232972 -18.6911 -0.953788 -0.235768 -19.2174 -0.94188 -0.225022 -19.6707 -0.953386 -0.244164 -20.2986 -0.964412 -0.254195 -20.9136 -0.963348 -0.221775 -21.5856 -0.969346 -0.18314 -22.1281 -0.982303 -0.171111 -22.7423 -0.982869 -0.16963 -23.1435 -0.982904 -0.169597 -23.1506 -0.98687 -0.167741 -23.5319 -0.99205 -0.142973 -23.8444 -0.99686 -0.130096 -24.0377 -1.00064 -0.10406 -24.3992 -1.01015 -0.0488288 -25.163 -1.01805 -0.0518372 -25.6046 -1.04734 -0.0445194 -26.0815 -1.0666 -0.0311839 -26.4649 -1.10545 -0.0234292 -26.9075 -1.13012 -0.0164718 -27.1581 -1.13093 -0.0162578 -27.1662 -0.0022042 -0.0131529 -3.99991 -0.151163 0.545466 -4.1604 -0.180976 0.906804 -4.32935 -0.215149 1.27444 -4.48324 -0.233344 1.64803 -4.62501 -0.31758 2.02262 -4.73718 -0.418083 2.39383 -4.84718 -0.52059 2.76884 -4.94133 -0.632097 3.14164 -5.03397 -0.745676 3.51402 -5.1258 -0.893354 3.86337 -5.25287 -1.07237 4.21382 -5.32457 -1.20386 4.58092 -5.41372 -1.33034 4.94867 -5.50734 -1.4771 5.31929 -5.54048 -1.55635 5.71133 -5.53576 -1.62014 6.10604 -5.52406 -1.71281 6.49445 -5.54757 -1.81583 6.87953 -5.58065 -1.93075 7.26108 -5.61552 -2.03964 7.6239 -5.74399 -2.12501 7.99555 -5.86478 -2.22646 8.3627 -5.98689 -2.32493 8.73239 -6.10362 -2.44419 9.10484 -6.18766 -2.55406 9.48177 -6.26416 -2.64563 9.7552 -6.32403 -0.151163 0.545466 -4.1604 -0.599291 1.08841 -3.45019 -1.02306 1.61266 -2.71155 -1.09304 2.09511 -1.83843 -1.18074 2.61917 -0.99128 -1.30276 3.13138 -0.14113 -1.03346 3.74892 0.597872 -0.941355 4.05974 0.876546 -0.180976 0.906804 -4.32935 -0.194509 1.63061 -3.63949 -0.288554 2.17656 -2.80696 -0.325319 2.7146 -1.96484 -0.264003 3.29436 -1.15237 -0.427144 3.81618 -0.315057 -0.616999 4.7046 -0.00752245 -0.215149 1.27444 -4.48324 -1.14686 1.61616 -4.36016 -2.10032 1.89216 -4.23881 -2.9681 2.2571 -3.90151 -3.85002 2.62085 -3.60165 -4.73862 3.07158 -3.68667 -5.41472 3.306 -3.7817 -0.233344 1.64803 -4.62501 -0.654422 2.10184 -3.83967 -1.40553 2.57228 -3.37652 -2.1774 3.14903 -3.10896 -2.74961 3.90148 -2.7828 -2.79821 4.4794 -1.96815 -2.81469 4.63352 -1.75147 -0.31758 2.02262 -4.73718 0.518758 2.52266 -4.51247 1.29323 3.12305 -4.31313 1.91542 3.74252 -3.83444 2.80265 4.19767 -3.75928 3.70719 4.53698 -3.50107 3.81589 4.5772 -3.46831 -0.418083 2.39383 -4.84718 -0.652619 2.72599 -3.93358 -1.04107 3.07115 -3.0792 -1.4252 3.41484 -2.22227 -1.52832 3.94375 -1.37988 -1.61056 4.14917 -0.794315 -0.52059 2.76884 -4.94133 -1.47769 2.65624 -5.20833 -2.13532 3.01405 -5.87127 -2.77892 3.24302 -6.60157 -3.6531 3.45498 -7.03848 -3.95204 3.62479 -7.17523 -0.632097 3.14164 -5.03397 -1.1639 3.3641 -4.21684 -1.74212 3.58968 -3.43277 -2.25102 3.98547 -2.66833 -2.87901 4.21693 -1.94847 -0.745676 3.51402 -5.1258 -1.04578 3.56436 -6.07838 -1.3545 3.6131 -7.02828 -1.65076 3.68738 -7.9805 -1.8619 3.8334 -8.46054 -0.893354 3.86337 -5.25287 -1.13766 3.2914 -6.03592 -1.3676 2.76826 -6.85656 -1.74923 2.13097 -7.35513 -1.07237 4.21382 -5.32457 -0.539884 4.28209 -6.16826 0.00130623 4.39158 -7.002 0.143086 4.39496 -7.25562 -1.20386 4.58092 -5.41372 -1.37936 4.54295 -6.39747 -1.78749 4.74594 -6.70066 -1.33034 4.94867 -5.50734 -1.9902 4.98471 -5.76749 -0.00256086 -0.0171604 -4.72277 -0.904272 0.339499 -4.96713 -1.791 0.602892 -5.34705 -2.71219 0.98427 -5.2699 -3.66963 1.17099 -5.49003 -4.61272 1.43811 -5.292 -5.56435 1.69552 -5.12421 -6.40396 1.94899 -4.64379 -7.3114 2.08155 -4.24507 -8.00227 2.60923 -4.05757 0.00510896 -0.00313471 -5.41102 -0.715503 -0.643641 -5.67648 -1.4525 -1.29925 -5.51215 -1.69599 -2.1737 -5.09255 -2.01338 -3.03861 -4.70372 -2.02241 -4.02935 -4.83924 -2.03616 -5.02127 -4.96534 -1.92458 -5.98893 -5.19159 -1.83562 -6.70435 -5.35666 0.0114648 0.0121116 -6.09772 0.373356 0.856968 -6.49174 0.556477 1.21854 -7.40592 0.694383 1.97604 -8.04404 0.976318 2.80628 -8.52488 1.69106 3.41941 -8.86135 1.94521 3.98086 -9.64886 2.51967 4.18231 -10.4422 2.86323 4.2983 -10.91 0.0188055 0.0263668 -6.45744 -0.537144 -0.126999 -6.62296 -0.912275 -0.215433 -6.73 -1.30906 -0.241426 -6.77344 -1.69178 -0.34001 -6.83511 -2.02407 -0.557542 -6.88273 -2.38108 -0.719335 -6.9625 -2.73491 -0.890048 -7.03773 -3.07447 -1.06559 -7.15559 -3.43831 -1.17538 -7.28036 -3.8145 -1.29418 -7.34641 -4.17202 -1.44803 -7.43865 -4.54764 -1.54747 -7.53365 -4.92125 -1.64848 -7.63468 -5.29478 -1.74696 -7.73851 -5.66097 -1.82053 -7.88166 -6.03584 -1.88228 -8.00681 -6.39842 -1.96041 -8.15657 -6.77184 -2.0344 -8.27938 -7.14997 -2.1251 -8.37313 -7.52672 -2.21973 -8.46857 -7.90433 -2.31274 -8.56215 -8.27159 -2.38762 -8.70184 -8.65569 -2.44529 -8.79747 -8.78107 -2.4561 -8.82785 -0.537144 -0.126999 -6.62296 -1.01321 -0.169711 -7.50134 -1.5001 -0.203705 -8.37413 -2.12014 -0.475929 -9.10997 -2.80896 -0.859075 -9.72538 -3.41988 -1.15647 -10.4591 -3.4223 -1.15767 -10.4619 -0.912275 -0.215433 -6.73 -1.36241 0.371337 -7.40311 -1.74608 0.977166 -8.10008 -2.35514 1.30508 -8.82224 -2.69855 1.51678 -9.73726 -2.53095 1.86504 -10.145 -1.30906 -0.241426 -6.77344 -1.38357 0.259885 -7.63549 -1.58222 0.755704 -8.4809 -1.79879 1.26216 -9.31552 -1.96265 1.87203 -10.0909 -2.0376 2.1155 -10.5978 -1.69178 -0.34001 -6.83511 -2.1125 0.55604 -6.97686 -2.67298 1.38417 -6.9693 -3.21204 2.17945 -6.69189 -3.69982 2.98344 -6.5818 -2.02407 -0.557542 -6.88273 -1.80278 -1.46799 -7.23217 -1.74447 -2.3131 -7.76359 -1.67499 -3.20089 -8.21856 -1.60494 -3.86243 -8.56018 -2.38108 -0.719335 -6.9625 -3.15999 -0.132089 -6.74241 -3.89853 0.48747 -6.4765 -4.63945 1.09967 -6.20036 -4.86368 1.39129 -6.17845 -2.73491 -0.890048 -7.03773 -2.73653 -1.67561 -7.65652 -2.86395 -2.53224 -8.15646 -2.8061 -3.11163 -8.75646 -3.07447 -1.06559 -7.15559 -3.66763 -1.2 -6.36181 -4.07154 -1.38743 -5.46642 -4.29684 -1.38867 -5.24851 -3.43831 -1.17538 -7.28036 -4.06144 -0.393888 -7.24904 -4.61316 0.0141406 -7.36163 -3.8145 -1.29418 -7.34641 -4.38067 -0.698712 -7.91638 -4.38239 -0.69688 -7.91813 -4.17202 -1.44803 -7.43865 -4.22963 -1.42519 -7.6943 0.0224747 0.038025 -6.78852 -0.715409 0.699682 -6.65534 -1.48888 1.32441 -6.76241 -1.63626 2.26422 -7.0707 -1.85537 3.19794 -7.35379 -2.21285 4.07397 -7.67751 -2.94283 4.70995 -7.92782 -3.18445 5.50875 -8.16421 -0.00444944 0.0418853 -7.16414 -0.462507 -0.333719 -7.25956 -0.765091 -0.57422 -7.36253 -1.06786 -0.815669 -7.46269 -1.32916 -1.06569 -7.6336 -1.55987 -1.33109 -7.82423 -1.83062 -1.58895 -7.96635 -2.122 -1.84388 -8.06689 -2.41366 -2.09615 -8.17318 -2.73106 -2.31698 -8.2756 -3.04124 -2.54815 -8.37734 -3.31546 -2.77974 -8.55389 -3.66064 -2.97745 -8.59589 -4.02481 -3.13096 -8.65762 -4.34705 -3.34128 -8.76685 -4.64129 -3.60426 -8.83215 -4.93796 -3.86395 -8.89958 -5.21985 -4.12591 -9.00874 -5.53287 -4.35456 -9.10742 -5.83856 -4.59533 -9.20006 -6.1414 -4.84301 -9.28337 -6.36733 -5.01454 -9.33103 -0.462507 -0.333719 -7.25956 -1.29333 0.185196 -7.46069 -2.21902 0.559195 -7.40381 -3.15566 0.909132 -7.38832 -4.05881 1.33261 -7.31765 -4.34671 1.43697 -7.30504 -0.765091 -0.57422 -7.36253 -1.7539 -0.499959 -7.49194 -2.70075 -0.187919 -7.56999 -3.52649 0.104768 -8.05216 -4.4994 0.335216 -8.03348 -4.56307 0.361938 -8.02963 -1.06786 -0.815669 -7.46269 -1.14824 -0.870486 -8.45794 -0.820266 -1.60285 -9.05466 -0.38698 -2.17678 -9.74955 0.0102693 -2.30681 -10.2257 -1.32916 -1.06569 -7.6336 -0.561154 -1.5078 -8.09696 0.155228 -2.08999 -8.48147 0.835006 -2.81441 -8.596 0.926627 -2.99005 -8.62766 -1.55987 -1.33109 -7.82423 -2.48151 -0.980197 -7.98991 -3.43399 -0.732653 -8.1674 -4.01619 -0.5767 -8.28087 -1.83062 -1.58895 -7.96635 -2.62542 -1.55773 -7.36027 -3.42064 -1.49364 -6.75736 -3.44776 -1.49317 -6.73577 -2.122 -1.84388 -8.06689 -2.7554 -1.95738 -7.30143 -2.97375 -2.06822 -6.96669 -2.41366 -2.09615 -8.17318 -2.66772 -1.97092 -8.74549 -0.0293193 0.0199107 -7.66301 0.141607 0.560252 -7.86003 0.298442 0.91516 -7.9572 0.432767 1.26904 -8.08654 0.560325 1.6261 -8.21395 0.66573 1.97314 -8.38263 0.790818 2.30896 -8.56034 0.92235 2.64702 -8.7289 1.05309 2.98509 -8.89806 1.17356 3.3305 -9.05987 1.28097 3.67602 -9.23039 1.39625 4.02592 -9.38621 1.51846 4.3339 -9.6103 1.6203 4.64217 -9.84396 1.72179 4.95039 -10.0778 1.807 5.27807 -10.2908 1.86807 5.62411 -10.482 1.92378 5.97247 -10.6705 1.95238 6.31179 -10.8803 1.97535 6.63878 -11.1096 2.00132 6.87143 -11.2495 0.141607 0.560252 -7.86003 0.199588 0.558346 -8.85834 0.440932 0.376441 -9.81158 0.452343 0.285006 -10.8073 0.506292 0.212822 -11.8033 0.515777 0.204915 -11.9093 0.298442 0.91516 -7.9572 1.24503 1.1182 -8.20769 2.16429 1.39483 -8.48776 3.09025 1.64382 -8.77166 3.61199 1.66176 -9.06426 0.432767 1.26904 -8.08654 0.387652 1.78536 -7.23134 0.471323 2.28273 -6.36784 0.559272 2.80854 -5.5218 0.566564 2.85405 -5.45027 0.560325 1.6261 -8.21395 1.46584 1.28763 -8.46984 2.43316 1.04884 -8.55514 3.0907 0.908395 -8.88662 0.66573 1.97314 -8.38263 0.867447 2.6671 -7.69146 1.07491 3.36037 -7.00128 1.0813 3.42454 -6.93477 0.790818 2.30896 -8.56034 0.368542 2.50481 -9.4454 0.233725 2.56257 -9.78701 0.92235 2.64702 -8.7289 0.470453 2.86234 -9.07991 -0.0332251 0.0109462 -7.91895 0.823035 0.353703 -8.3054 1.72385 0.663599 -8.60953 2.51133 0.844947 -9.19858 3.4883 0.709839 -9.36376 4.44233 0.410465 -9.34949 5.4267 0.244689 -9.40888 6.37874 0.256492 -9.38844 -0.0429934 -0.00714101 -8.403 -0.866866 -0.408245 -8.80344 -1.67887 -0.953154 -9.01256 -2.45993 -1.48082 -9.34647 -3.3025 -1.94437 -9.62072 -4.19054 -2.38255 -9.75995 -5.08369 -2.81319 -9.88965 -5.38301 -2.93953 -9.90749 -0.048293 0.000836583 -9.04708 -0.429976 0.923035 -9.10928 -0.913911 1.79411 -9.19317 -1.46873 2.62525 -9.23034 -2.03697 3.35109 -9.61796 -2.56713 4.14714 -9.90992 -3.02508 4.94214 -10.3077 -3.16099 5.17994 -10.4275 -0.0447415 -0.000603715 -9.21334 0.145681 -0.962442 -9.40982 0.33121 -1.92974 -9.58276 0.510386 -2.8251 -9.99048 0.720348 -3.7704 -10.2401 0.912396 -4.72045 -10.4861 1.08218 -5.66623 -10.763 1.18593 -5.87745 -10.9208 -0.0121136 0.0257176 -9.97186 -0.347204 0.498498 -10.1274 -0.578158 0.801511 -10.2492 -0.813415 1.09995 -10.3741 -1.01301 1.44089 -10.4367 -1.18839 1.7921 -10.5135 -1.36803 2.14294 -10.5816 -1.51909 2.46841 -10.7584 -1.6427 2.82149 -10.9 -1.76632 3.1746 -11.0415 -1.81137 3.55243 -11.1649 -1.84738 3.92405 -11.3084 -1.79669 4.31817 -11.3543 -1.74355 4.71135 -11.4051 -1.74754 5.10846 -11.453 -1.75728 5.50514 -11.5035 -1.76245 5.90355 -11.5387 -1.7743 6.30321 -11.55 -1.81875 6.53206 -11.5728 -0.347204 0.498498 -10.1274 -0.256948 0.830063 -11.0665 -0.376313 1.11872 -12.0165 -0.435646 1.25475 -12.4768 -0.578158 0.801511 -10.2492 -0.551472 0.99224 -11.2305 -0.53131 1.07613 -12.2234 -0.813415 1.09995 -10.3741 -1.46453 1.07412 -9.61554 -1.83664 0.930326 -9.2432 -1.01301 1.44089 -10.4367 -0.921192 1.71394 -11.3875 -1.18839 1.7921 -10.5135 -0.926045 2.06942 -10.5682 -0.0197397 0.0331927 -10.1925 -0.0185963 -0.553497 -10.3182 -0.0307477 -0.94776 -10.3846 -0.0384403 -1.33834 -10.4705 -0.114895 -1.71549 -10.5797 -0.237242 -2.08595 -10.6679 -0.321154 -2.46958 -10.744 -0.412522 -2.84744 -10.8382 -0.467516 -3.23663 -10.9124 -0.485671 -3.63159 -10.9731 -0.517228 -4.02317 -11.0483 -0.535661 -4.41111 -11.1441 -0.607248 -4.79678 -11.2224 -0.677644 -5.17891 -11.3173 -0.746878 -5.55944 -11.4193 -0.791378 -5.94396 -11.5202 -0.899431 -6.31771 -11.6131 -0.941291 -6.47454 -11.6715 -0.0185963 -0.553497 -10.3182 -0.801746 -0.983959 -9.8694 -1.51114 -1.21731 -9.20434 -1.57083 -1.2303 -9.14865 -0.0307477 -0.94776 -10.3846 0.025355 -1.06405 -11.3762 0.0839362 -1.10456 -11.9374 -0.0384403 -1.33834 -10.4705 0.505327 -1.08067 -11.2273 -0.114895 -1.71549 -10.5797 -0.317259 -1.89463 -10.4278 -0.0349131 0.0415063 -10.4504 -0.593172 0.201937 -10.6008 -0.955367 0.330158 -10.712 -1.31766 0.457958 -10.8234 -1.69127 0.589514 -10.8792 -2.06861 0.711381 -10.9317 -2.44603 0.838895 -10.9678 -2.82454 0.961125 -11.01 -3.21651 1.0407 -11.0149 -3.59979 1.14887 -11.0523 -3.96845 1.28124 -11.1334 -4.33743 1.41203 -11.2155 -4.70777 1.54688 -11.2838 -5.06493 1.67876 -11.4065 -5.4437 1.75976 -11.5063 -5.8348 1.83518 -11.5431 -6.22696 1.90763 -11.5741 -6.36221 1.92888 -11.5784 -0.593172 0.201937 -10.6008 -0.327307 1.16523 -10.5635 -0.448337 2.09809 -10.5473 -0.955367 0.330158 -10.712 -0.880157 1.21335 -11.175 -0.929087 1.59715 -11.3645 -1.31766 0.457958 -10.8234 -1.8612 0.468285 -10.1589 -1.69127 0.589514 -10.8792 -1.65679 0.763357 -11.0291 -0.0472459 0.0449541 -10.6039 0.364714 0.889996 -10.9448 1.05243 1.39797 -11.4634 1.44077 2.13219 -12.0203 1.90705 2.9813 -12.2685 2.44562 3.77647 -12.5471 2.81369 4.15488 -12.6993 -0.110506 0.0597697 -11.2002 0.810821 -0.0999085 -11.5547 1.74171 -0.254727 -11.8856 2.68098 -0.519302 -12.1042 3.61974 -0.784646 -12.324 4.38655 -1.28372 -12.7276 4.76799 -1.53852 -12.9307 -0.111093 0.0599091 -11.2058 -1.00734 0.181602 -11.6323 -1.95607 0.445176 -11.8068 -2.81663 0.948417 -11.8854 -3.71687 1.35081 -12.0517 -4.58116 1.84677 -12.1356 -4.62065 1.86816 -12.1363 -0.157697 0.0757636 -11.6738 0.0436556 -0.477343 -11.7901 0.180271 -0.845331 -11.8671 0.348114 -1.18947 -11.9829 0.515897 -1.53683 -12.0886 0.684549 -1.87625 -12.2165 0.856619 -2.2135 -12.3455 1.03662 -2.55973 -12.4334 1.21114 -2.91095 -12.5121 1.36825 -3.27155 -12.5848 1.49941 -3.63383 -12.6923 1.62765 -3.99735 -12.7991 1.73269 -4.36317 -12.9221 1.82732 -4.73472 -13.0361 1.92474 -5.04638 -13.1281 0.0436556 -0.477343 -11.7901 0.521216 -0.648927 -11.6424 -0.232171 0.0987479 -12.1158 -1.16129 0.466908 -12.0813 -2.14313 0.531376 -12.2597 -3.14045 0.542652 -12.1874 -4.12334 0.726337 -12.2013 -4.89405 0.937234 -12.5942 -0.31646 0.104625 -12.5254 -0.660961 1.0273 -12.6986 -1.25104 1.82225 -12.5576 -1.86068 2.61448 -12.5313 -2.50198 3.35002 -12.7497 -3.01403 3.95465 -12.8978 -0.466855 0.115848 -13.2651 -0.329649 0.955341 -13.7909 -0.0549786 1.84108 -14.1651 -0.0921678 2.69809 -14.679 0.0612772 3.38626 -15.3882 0.0747372 3.43334 -15.4257 -0.5844 0.047844 -13.9428 -1.33481 -0.603716 -14.0539 -2.12385 -1.17792 -14.2723 -3.01113 -1.63342 -14.3448 -3.55766 -1.91758 -14.3832 -0.618243 0.0323697 -14.1188 -0.17011 0.174311 -14.4916 0.0762327 0.272462 -14.7911 0.331191 0.347429 -15.0901 0.662396 0.410981 -15.3052 0.99109 0.466025 -15.5264 1.31406 0.510171 -15.7582 1.6161 0.567223 -16.0141 1.91558 0.611572 -16.2756 2.03471 0.630704 -16.3743 -0.619311 0.0319793 -14.1242 -0.253512 0.857878 -14.5532 -0.242559 1.75775 -14.9893 -0.174817 2.54081 -15.6075 -0.14685 2.77176 -15.7955 -0.70382 0.00458986 -14.7477 -1.25803 -0.813476 -14.9014 -1.68896 -1.67138 -15.1813 -2.13602 -2.42148 -15.3859 -0.769334 -0.0320334 -15.2779 -0.666258 0.517529 -15.4955 -0.600287 0.894583 -15.6116 -0.536812 1.26747 -15.7417 -0.461279 1.64866 -15.8365 -0.360101 2.02363 -15.9322 -0.301162 2.29667 -16.0369 -0.769335 -0.0320341 -15.2779 -1.11512 -0.517733 -15.3452 -1.35767 -0.835801 -15.3456 -1.59371 -1.15709 -15.3781 -1.83348 -1.47516 -15.4148 -2.10517 -1.76461 -15.4638 -2.21982 -2.03424 -15.4658 -0.771875 -0.033294 -15.2983 -1.05073 -0.876566 -15.7578 -1.3353 -1.68624 -16.2711 -1.44298 -1.95923 -16.4952 -0.833774 -0.068852 -15.9087 -0.379112 -0.412034 -16.0972 -0.0687093 -0.641611 -16.2018 0.225641 -0.864108 -16.3562 0.51413 -1.09153 -16.5036 -0.851114 -0.105548 -16.3375 -1.54975 -0.784875 -16.5621 -1.67123 -1.0082 -16.6241 -0.876675 -0.137766 -16.7458 -0.813397 -0.901697 -16.9455 -0.88171 -0.144042 -16.8297 -1.26163 0.268523 -17.0429 -1.32761 0.335242 -17.0817 -0.930355 -0.169503 -17.3404 -0.968848 -0.136735 -17.3549 
</DataArray>
</Points>
<Lines>
<DataArray type="Int32" Name="connectivity" NumberOfComponents="1" format="ascii" >
0 1 2 3 4 5 6 7 8 9 10 11 12 13 14 15 16 17 18 19 20 21 22 23 24 25 26 27 28 29 30 31 32 33 34 35 36 37 38 39 40 41 42 43 44 45 46 47 48 49 50 51 52 53 54 55 56 57 58 59 60 61 62 63 64 65 66 67 68 69 70 71 72 73 74 75 76 77 78 79 80 81 82 83 84 85 86 87 88 89 90 91 92 93 94 95 96 97 98 99 100 101 102 103 104 105 106 107 108 109 110 111 112 113 114 115 116 117 118 119 120 121 122 123 124 125 126 127 128 129 130 131 132 133 134 135 136 137 138 139 140 141 142 143 144 145 146 147 148 149 150 151 152 153 154 155 156 157 158 159 160 161 162 163 164 165 166 167 168 169 170 171 172 173 174 175 176 177 178 179 180 181 182 183 184 185 186 187 188 189 190 191 192 193 194 195 196 197 198 199 200 201 202 203 204 205 206 207 208 209 210 211 212 213 214 215 216 217 218 219 220 221 222 223 224 225 226 227 228 229 230 231 232 233 234 235 236 237 238 239 240 241 242 243 244 245 246 247 248 249 250 251 252 253 254 255 256 257 258 259 260 261 262 263 264 265 266 267 268 269 270 271 272 273 274 275 276 277 278 279 280 281 282 283 284 285 286 287 288 289 290 291 292 293 294 295 296 297 298 299 300 301 302 303 304 305 306 307 308 309 310 311 312 313 314 315 316 317 318 319 320 321 322 323 324 325 326 327 328 329 330 331 332 333 334 335 336 337 338 339 340 341 342 343 344 345 346 347 348 349 350 351 352 353 354 355 356 357 358 359 360 361 362 363 364 365 366 367 368 369 370 371 372 373 374 375 376 377 378 379 380 381 382 383 384 385 386 387 388 389 390 391 392 393 394 395 396 397 398 399 400 401 402 403 404 405 406 407 408 409 410 411 412 413 414 415 416 417 418 419 420 421 422 423 424 425 426 427 428 429 430 431 432 433 434 435 436 437 438 439 440 441 442 443 444 445 446 447 448 449 450 451 452 453 454 455 456 457 458 459 460 461 462 463 464 465 466 467 468 469 470 471 472 473 474 475 476 477 478 479 480 481 482 483 484 485 486 487 488 489 490 491 492 493 494 495 496 497 498 499 500 501 502 503 504 505 506 507 508 509 510 511 512 513 514 515 516 517 518 519 520 521 522 523 524 525 526 527 528 529 530 531 532 533 534 535 536 537 538 539 540 541 542 543 544 545 546 547 548 549 550 551 552 553 554 555 556 557 558 559 560 561 562 563 564 565 566 567 568 569 570 571 572 573 574 575 576 577 578 579 580 581 582 583 584 585 586 587 588 589 590 591 592 593 594 595 596 597 598 599 600 601 602 603 604 605 606 607 608 
</DataArray>
<DataArray type="Int32" Name="offsets" NumberOfComponents="1" format="ascii" >
58 85 93 100 107 114 121 127 133 138 143 147 151 154 156 166 175 184 209 216 222 228 233 238 243 247 251 254 257 259 267 289 295 301 306 311 315 319 322 324 345 351 356 361 365 369 372 374 382 390 398 406 425 429 432 435 437 439 457 461 464 466 468 486 489 492 494 496 503 510 517 532 534 540 546 552 557 567 572 576 583 590 594 599 602 604 607 609 
</DataArray>

</Lines>
</Piece>
</PolyData>
</VTKFile>
