<?xml version="1.0"?><VTKFile type="PolyData" version="0.1" byte_order="LittleEndian">
<PolyData>
<Piece NumberOfLines="25" NumberOfPoints="142">
<PointData Scalars=" PointData">
<DataArray type="Float32" Name="time" NumberOfComponents="1" format="ascii" >
0 0.141576 0.283879 0.432687 0.57838 0.732743 0.902543 1.05703 1.23016 1.39723 1.53179 1.68331 1.85599 2.01572 2.20733 2.3841 2.54893 2.71373 2.86253 3.03523 3.21909 3.40869 3.56554 3.73565 3.91984 4.11589 4.28884 4.45711 4.60633 4.74837 4.9213 5.10412 5.26677 5.4469 5.63581 5.82554 6.00104 6.17556 6.32991 6.51864 6.73607 6.90432 7.1042 7.29091 7.5052 7.69886 7.89534 8.07555 8.25159 8.42579 8.60954 8.80332 9.01631 9.21151 9.42114 9.5934 9.78111 9.97169 10 5.94912 7.53112 9.33046 10 6.10659 7.79697 9.7196 10 6.27129 7.58982 9.0895 10 6.4326 7.73555 9.21751 10 6.60355 8.06789 9.73342 10 6.79165 8.47446 10 6.96284 8.4422 10 7.15475 8.76632 10 7.34 8.67177 10 7.48925 8.791 10 7.65737 8.95871 10 7.849 9.25755 10 8.02632 9.65109 10 8.23911 9.56244 10 8.43548 9.90219 10 8.61866 9.83387 10 8.80186 10 8.96732 10 9.15943 10 9.36401 10 9.57505 10 9.7497 10 9.93919 10 7 7.18031 7.39201 7.60649 7.80587 7.99645 8.17676 8.3656 8.54891 8.75663 8.98144 9.18234 9.37421 9.55074 9.78493 10 
</DataArray>

</PointData>
<CellData Scalars=" CellData">
<DataArray type="Float32" Name="radius" NumberOfComponents="1" format="ascii" >
0.13841 0.0511998 0.049688 0.0476313 0.0530609 0.0393278 0.0422876 0.0532199 0.0538645 0.054696 0.0479805 0.062879 0.0488618 0.0505991 0.0484824 0.040527 0.0580364 0.0513263 0.056636 0.0449166 0.0505312 0.0474992 0.0458512 0.0436724 0.117895 
</DataArray>
<DataArray type="Float32" Name="subType" NumberOfComponents="1" format="ascii" >
1 2 2 2 2 2 2 2 2 2 2 2 2 2 2 2 2 2 2 2 2 2 2 2 4 
</DataArray>
<DataArray type="Float32" Name="creationTime" NumberOfComponents="1" format="ascii" >
0 5.94912 6.10659 6.27129 6.4326 6.60355 6.79165 6.96284 7.15475 7.34 7.48925 7.65737 7.849 8.02632 8.23911 8.43548 8.61866 8.80186 8.96732 9.15943 9.36401 9.57505 9.7497 9.93919 7 
</DataArray>

</CellData>
<Points>
<DataArray type="Float32" Name="Coordinates" NumberOfComponents="3" format="ascii" >
0 0 -3 0.306968 0.317935 -3.02895 0.624113 0.625652 -3.07275 0.950857 0.949302 -3.12782 1.27054 1.26595 -3.17406 1.60021 1.60332 -3.25136 1.96689 1.9563 -3.37732 2.31051 2.26793 -3.4826 2.68857 2.62002 -3.60781 3.06104 2.95281 -3.71778 3.37026 3.21232 -3.79417 3.70945 3.50884 -3.8942 4.11702 3.80356 -4.04274 4.47998 4.10473 -4.15008 4.92718 4.43654 -4.30678 5.35735 4.72639 -4.42484 5.75546 4.99179 -4.55009 6.14354 5.26626 -4.68108 6.49361 5.51223 -4.79966 6.9106 5.76464 -4.96234 7.38021 5.98762 -5.12711 7.86605 6.19488 -5.31478 8.26701 6.34758 -5.487 8.69914 6.50226 -5.68535 9.16367 6.63317 -5.92696 9.66019 6.77049 -6.17684 10.0926 6.88668 -6.40698 10.5083 7.00264 -6.63563 10.859 7.09593 -6.86999 11.1904 7.18488 -7.09451 11.595 7.29404 -7.36336 12.0379 7.38582 -7.62944 12.4217 7.4298 -7.88912 12.8329 7.44853 -8.19682 13.2567 7.43486 -8.52682 13.6786 7.41876 -8.85999 14.0598 7.42814 -9.17701 14.4112 7.42284 -9.52089 14.7204 7.41179 -9.82455 15.098 7.36527 -10.1915 15.5337 7.31079 -10.6103 15.8564 7.26979 -10.9468 16.2386 7.22123 -11.3451 16.5869 7.16365 -11.7213 17.0147 7.15504 -12.1277 17.394 7.15093 -12.4998 17.7814 7.08293 -12.8658 18.0971 6.96821 -13.2242 18.3906 6.85327 -13.584 18.6546 6.75462 -13.9624 18.9285 6.66285 -14.3658 19.2061 6.57014 -14.7976 19.4834 6.41402 -15.272 19.73 6.28136 -15.7121 19.9961 6.13678 -16.1812 20.2018 6.00866 -16.5689 20.4118 5.8372 -16.9851 20.6264 5.6665 -17.4063 20.6566 5.63794 -17.4681 0.306968 0.317935 -3.02895 -0.37743 1.02384 -2.84647 -1.0613 1.68882 -2.54626 -1.29579 1.91674 -2.45904 0.624113 0.625652 -3.07275 0.314446 0.745213 -2.12945 0.00983772 0.849083 -1.18265 -0.033229 0.861984 -1.05566 0.950857 0.949302 -3.12782 0.406 1.35952 -3.85915 -0.147172 1.78039 -4.57809 -0.448475 2.01021 -4.96767 1.27054 1.26595 -3.17406 0.647996 1.98295 -2.86044 0.0161594 2.69349 -2.55073 -0.292191 3.0177 -2.39067 1.60021 1.60332 -3.25136 1.31383 1.30779 -4.16276 1.08894 1.02283 -5.09454 1.05195 0.985925 -5.23269 1.96689 1.9563 -3.37732 2.7017 1.39673 -2.994 3.30014 0.952796 -2.68155 2.31051 2.26793 -3.4826 1.70349 2.8499 -4.02375 1.11909 3.39472 -4.50059 2.68857 2.62002 -3.60781 3.37108 2.13296 -3.06287 3.86204 1.80961 -2.70542 3.06104 2.95281 -3.71778 3.58954 2.45482 -4.40531 4.0502 2.0172 -5.02012 3.37026 3.21232 -3.79417 2.81109 3.99952 -4.05426 2.34643 4.64758 -4.27223 3.70945 3.50884 -3.8942 3.35459 4.32918 -4.34266 3.10122 4.92186 -4.65825 4.11702 3.80356 -4.04274 4.52918 3.81623 -3.13172 4.70597 3.8124 -2.68492 4.47998 4.10473 -4.15008 4.04896 4.64767 -4.8708 3.96716 4.75541 -5.01738 4.92718 4.43654 -4.30678 5.61749 4.05785 -3.69028 5.82637 3.93707 -3.50374 5.35735 4.72639 -4.42484 4.91287 5.59365 -4.64911 4.88431 5.64649 -4.66638 5.75546 4.99179 -4.55009 6.33672 4.32293 -5.01351 6.41152 4.23688 -5.07074 6.14354 5.26626 -4.68108 6.58738 4.70908 -5.05829 6.49361 5.51223 -4.79966 6.01629 6.19575 -4.7903 6.9106 5.76464 -4.96234 6.76752 5.76999 -5.57303 7.38021 5.98762 -5.12711 7.21079 6.47287 -5.10612 7.86605 6.19488 -5.31478 7.82927 6.42296 -5.08285 8.26701 6.34758 -5.487 8.19049 6.38093 -5.66757 8.69914 6.50226 -5.68535 8.68059 6.54537 -5.67759 0 0 -3 -0.379276 -0.109182 -3.2134 -0.81875 -0.23711 -3.4713 -1.2586 -0.356544 -3.74323 -1.66643 -0.467227 -3.99522 -2.04317 -0.586273 -4.24796 -2.36293 -0.741057 -4.51201 -2.69597 -0.864491 -4.80811 -3.02222 -0.978484 -5.09276 -3.36347 -1.15469 -5.42221 -3.73241 -1.34487 -5.77701 -4.04896 -1.50448 -6.11026 -4.33532 -1.65542 -6.44191 -4.5942 -1.79557 -6.7489 -4.96976 -1.98733 -7.12143 -5.30515 -2.16187 -7.47135 
</DataArray>
</Points>
<Lines>
<DataArray type="Int32" Name="connectivity" NumberOfComponents="1" format="ascii" >
0 1 2 3 4 5 6 7 8 9 10 11 12 13 14 15 16 17 18 19 20 21 22 23 24 25 26 27 28 29 30 31 32 33 34 35 36 37 38 39 40 41 42 43 44 45 46 47 48 49 50 51 52 53 54 55 56 57 58 59 60 61 62 63 64 65 66 67 68 69 70 71 72 73 74 75 76 77 78 79 80 81 82 83 84 85 86 87 88 89 90 91 92 93 94 95 96 97 98 99 100 101 102 103 104 105 106 107 108 109 110 111 112 113 114 115 116 117 118 119 120 121 122 123 124 125 126 127 128 129 130 131 132 133 134 135 136 137 138 139 140 141 
</DataArray>
<DataArray type="Int32" Name="offsets" NumberOfComponents="1" format="ascii" >
59 63 67 71 75 79 82 85 88 91 94 97 100 103 106 109 112 114 116 118 120 122 124 126 142 
</DataArray>

</Lines>
</Piece>
</PolyData>
</VTKFile>
