<?xml version="1.0"?><VTKFile type="PolyData" version="0.1" byte_order="LittleEndian">
<PolyData>
<Piece NumberOfLines="70" NumberOfPoints="449">
<PointData Scalars=" PointData">
<DataArray type="Float32" Name="time" NumberOfComponents="1" format="ascii" >
0 0.13736 0.264429 0.374476 0.496731 0.619433 0.73473 0.867245 0.975764 1.0954 1.22151 1.36267 1.4913 1.61142 1.7189 1.82712 1.94066 2.04811 2.17971 2.32233 2.47027 2.57903 2.70241 2.85094 2.98507 3.12924 3.24198 3.3869 3.50444 3.62834 3.75806 3.90677 3.99574 4.09109 4.18368 4.29242 4.41301 4.53894 4.68763 4.823 4.95304 5.07389 5.20444 5.33899 5.46653 5.58717 5.71799 5.85343 6.00335 6.11236 6.2724 6.42493 6.56721 6.69487 6.83135 6.98969 7.1226 7.2682 7.40166 7.54778 7.66614 7.78599 7.9302 8.0576 8.20935 8.32444 8.47436 8.59794 8.75071 8.89701 9.03584 9.18265 9.33316 9.47538 9.63335 9.77809 9.88802 10.0516 10.2043 10.3492 10.493 10.6655 10.8097 10.9448 11.0676 11.2099 11.3544 11.5073 11.667 11.8269 11.9745 12.1336 12.2702 12.4301 12.5765 12.7178 12.8921 13.0405 13.195 13.3626 13.5098 13.6501 13.8156 13.9809 14.1396 14.3057 14.4642 14.6402 14.8119 14.9494 15 6.19638 7.6542 9.31232 11.2347 13.5217 15 6.33732 8.48026 10.9176 13.7434 15 6.45941 7.91474 9.57002 11.4891 13.7722 15 6.59508 7.93497 9.45895 11.2258 13.3278 15 6.73127 8.22882 9.93213 11.9069 14.2562 15 6.85927 8.24388 9.81871 11.6445 13.8167 15 7.00642 8.48367 10.1639 12.1118 14.4294 15 7.12696 8.52953 10.1248 11.9743 14.1746 15 7.25987 8.8923 10.749 12.9016 15 7.4 8.56345 9.88675 11.4209 13.2462 15 7.55689 8.80199 10.2181 11.86 13.8133 15 7.69991 9.08391 10.6581 12.4831 14.6543 15 7.83348 9.3938 11.1685 13.226 15 7.95303 9.85264 12.0132 14.5182 15 8.07343 9.44867 11.0129 12.8263 14.9838 15 8.19976 9.74535 11.5033 13.5414 15 8.31935 9.79467 11.4727 13.4181 15 8.46586 9.76356 11.2396 12.9508 14.9866 15 8.62466 10 11.5722 13.3948 15 8.78946 10.1477 11.6925 13.4836 15 8.91063 10.4712 12.2461 14.3039 15 9.04812 10.4401 12.0232 13.8587 15 9.21368 10.6135 12.2056 14.0514 15 9.36323 10.5564 11.9135 13.4869 15 9.52402 10.8462 12.3501 14.0936 15 9.64979 10.9868 12.5074 14.2704 15 9.8115 11.164 12.7022 14.4856 15 9.94269 11.5665 13.4133 15 10.081 11.5824 13.29 15 10.2259 11.5501 13.0563 14.8025 15 10.392 11.737 13.2667 15 10.4914 11.8773 13.4536 15 10.5979 11.9773 13.5462 15 10.7014 12.3824 14.2943 15 10.823 12.3829 14.1572 15 10.9578 12.4016 14.0437 15 11.0987 12.4939 14.0808 15 11.265 12.6364 14.1962 15 11.4165 12.9795 14.7571 15 11.5621 12.9192 14.4628 15 11.6974 13.2569 15 11.8436 13.311 14.9801 15 11.9943 13.4642 15 12.1373 13.5195 15 12.2725 13.5506 15 12.4191 13.7976 15 12.571 13.7544 15 12.7392 14.0558 15 12.8615 14.3026 15 13.0412 14.6388 15 13.2124 14.4974 15 13.3722 14.8454 15 13.5156 14.7691 15 13.669 15 13.847 15 13.9965 15 14.1602 15 14.3104 15 14.4748 15 14.6081 15 14.743 15 14.9055 15 7 7.13307 7.25838 7.41618 7.55048 7.68227 7.80305 7.91648 8.04476 8.19487 8.34269 8.47925 8.61286 8.76295 8.89756 9.02732 9.14005 9.26706 9.42365 9.57116 9.69177 9.8289 9.95921 10.1069 10.2511 10.3857 10.527 10.6805 10.8313 10.9737 11.11 11.2539 11.36 11.5107 11.6792 11.8217 11.9846 12.1276 12.2599 12.4169 12.5452 12.6781 12.8166 12.9626 13.0908 13.2354 13.3566 13.5233 13.6281 13.7676 13.8922 14.0436 14.1719 14.3143 14.4653 14.6088 14.768 14.9192 15 14.3681 15 14.5086 15 14.6855 15 14.8361 15 14.9839 15 14 14.1124 14.2245 14.3314 14.4476 14.5538 14.6524 14.7686 14.8728 14.9791 15 
</DataArray>

</PointData>
<CellData Scalars=" CellData">
<DataArray type="Float32" Name="radius" NumberOfComponents="1" format="ascii" >
0.147243 0.0484715 0.055323 0.05072 0.0462043 0.0502084 0.0465281 0.0412381 0.0562079 0.0552885 0.0499287 0.04986 0.0565293 0.0547064 0.0562559 0.0418716 0.0394436 0.0466774 0.057676 0.0435541 0.049476 0.0510986 0.0423477 0.0457412 0.0498987 0.0389136 0.0516028 0.0500673 0.0453286 0.0520447 0.0556549 0.0565904 0.0552981 0.0533507 0.0557732 0.0522296 0.0405236 0.0463165 0.0471328 0.0556357 0.0502582 0.0508194 0.0512381 0.0542923 0.043532 0.0500171 0.0536174 0.0542258 0.0594267 0.0534619 0.055089 0.0416727 0.0462144 0.0451818 0.0466336 0.0508855 0.0473906 0.0513809 0.0483122 0.0435595 0.0486203 0.0471018 0.0522616 0.129856 0.0379609 0.0563177 0.0455805 0.0515277 0.040541 0.15029 
</DataArray>
<DataArray type="Float32" Name="subType" NumberOfComponents="1" format="ascii" >
1 2 2 2 2 2 2 2 2 2 2 2 2 2 2 2 2 2 2 2 2 2 2 2 2 2 2 2 2 2 2 2 2 2 2 2 2 2 2 2 2 2 2 2 2 2 2 2 2 2 2 2 2 2 2 2 2 2 2 2 2 2 2 4 2 2 2 2 2 4 
</DataArray>
<DataArray type="Float32" Name="creationTime" NumberOfComponents="1" format="ascii" >
0 6.19638 6.33732 6.45941 6.59508 6.73127 6.85927 7.00642 7.12696 7.25987 7.4 7.55689 7.69991 7.83348 7.95303 8.07343 8.19976 8.31935 8.46586 8.62466 8.78946 8.91063 9.04812 9.21368 9.36323 9.52402 9.64979 9.8115 9.94269 10.081 10.2259 10.392 10.4914 10.5979 10.7014 10.823 10.9578 11.0987 11.265 11.4165 11.5621 11.6974 11.8436 11.9943 12.1373 12.2725 12.4191 12.571 12.7392 12.8615 13.0412 13.2124 13.3722 13.5156 13.669 13.847 13.9965 14.1602 14.3104 14.4748 14.6081 14.743 14.9055 7 14.3681 14.5086 14.6855 14.8361 14.9839 14 
</DataArray>

</CellData>
<Points>
<DataArray type="Float32" Name="Coordinates" NumberOfComponents="3" format="ascii" >
0 0 -3 0.494581 0.0317302 -3.26217 0.924678 0.0982239 -3.54215 1.29639 0.176025 -3.77841 1.6992 0.240815 -4.06029 2.05915 0.330958 -4.39042 2.39098 0.419244 -4.70508 2.78317 0.474596 -5.06349 3.10016 0.517932 -5.36049 3.39788 0.555294 -5.73557 3.66084 0.566629 -6.16683 3.94955 0.619447 -6.64874 4.2441 0.672059 -7.06545 4.47412 0.73917 -7.4791 4.67185 0.78432 -7.85472 4.86095 0.825856 -8.23762 5.0642 0.856824 -8.63707 5.27005 0.839971 -9.00781 5.52559 0.819185 -9.45875 5.78999 0.789228 -9.95241 6.01983 0.792541 -10.4853 6.18059 0.808441 -10.8791 6.36212 0.825402 -11.3253 6.57697 0.856718 -11.8618 6.7748 0.883023 -12.3436 6.96584 0.956671 -12.8639 7.11632 0.998041 -13.2714 7.30268 1.05024 -13.7965 7.44246 1.06324 -14.227 7.58162 1.06524 -14.6826 7.72772 1.04574 -15.158 7.87354 1.02185 -15.7077 7.94495 1.01451 -16.0399 8.0205 1.002 -16.3953 8.10349 0.992018 -16.7378 8.20911 0.964683 -17.1365 8.32378 0.894242 -17.5737 8.43518 0.809127 -18.0294 8.55278 0.715455 -18.5704 8.63896 0.635514 -19.0668 8.72132 0.562723 -19.543 8.82261 0.498683 -19.9802 8.93465 0.429792 -20.4509 9.04986 0.348199 -20.9331 9.14844 0.288831 -21.3942 9.27083 0.270168 -21.8253 9.40963 0.272128 -22.2904 9.53576 0.267946 -22.7757 9.61157 0.282309 -23.3239 9.67263 0.298892 -23.7206 9.75886 0.31538 -24.3023 9.86544 0.306117 -24.8512 9.938 0.288821 -25.3662 10.0004 0.263703 -25.8272 10.0721 0.240431 -26.3183 10.1578 0.213306 -26.8862 10.2269 0.181655 -27.3616 10.3017 0.146691 -27.8813 10.3539 0.111105 -28.3582 10.3188 0.0810507 -28.8817 10.2864 0.0549278 -29.3044 10.2383 0.0102643 -29.7286 10.2434 -0.068722 -30.2377 10.2519 -0.133991 -30.6871 10.2702 -0.170186 -31.2253 10.2775 -0.173589 -31.6336 10.2928 -0.167478 -32.164 10.2948 -0.129553 -32.5989 10.2706 -0.090959 -33.1353 10.2812 -0.0486323 -33.6476 10.2431 -0.0298472 -34.1324 10.2279 -0.00210929 -34.645 10.2331 0.00998591 -35.1699 10.1997 0.00274594 -35.6636 10.1451 0.00314402 -36.2092 10.1025 0.0236883 -36.7081 10.0928 0.05948 -37.086 10.121 0.0763946 -37.6487 10.1271 0.0960189 -38.1732 10.1272 0.137534 -38.6684 10.1016 0.177952 -39.1577 10.0494 0.269503 -39.7365 10.013 0.306395 -40.2244 10.0316 0.319805 -40.6823 10.0493 0.325472 -41.0975 10.0698 0.329001 -41.5778 10.0895 0.33078 -42.0644 10.1257 0.340361 -42.5771 10.1655 0.352189 -43.1109 10.2006 0.367141 -43.6442 10.2108 0.389558 -44.1356 10.2241 0.411529 -44.6642 10.2338 0.434099 -45.117 10.2399 0.447944 -45.6458 10.2455 0.462674 -46.1287 10.256 0.478582 -46.5936 10.2703 0.500151 -47.1653 10.2846 0.51963 -47.6504 10.3121 0.559781 -48.1529 10.3846 0.586161 -48.6933 10.4492 0.60909 -49.1664 10.4899 0.609481 -49.6191 10.5528 0.580412 -50.1496 10.6149 0.570113 -50.6785 10.6274 0.507697 -51.1845 10.6215 0.467389 -51.7155 10.5865 0.453844 -52.2205 10.6084 0.435308 -52.7806 10.6831 0.409288 -53.3205 10.7447 0.394328 -53.7517 10.7646 0.388468 -53.9104 0.494581 0.0317302 -3.26217 1.02201 0.528744 -2.57311 1.55759 1.0903 -1.94239 2.07673 1.73861 -1.38545 2.58046 2.39613 -0.825154 2.85957 2.76027 -0.517066 0.924678 0.0982239 -3.54215 0.596381 1.03954 -3.4637 0.288151 1.99066 -3.44493 -0.00691215 2.94057 -3.34189 -0.135434 3.30651 -3.26148 1.29639 0.176025 -3.77841 1.08277 -0.308085 -4.62694 0.878128 -0.859202 -5.43589 0.695101 -1.41994 -6.2434 0.512968 -1.98113 -7.0508 0.434012 -2.20124 -7.45209 1.6992 0.240815 -4.06029 1.97181 0.855197 -3.31988 2.19868 1.54765 -2.63502 2.46338 2.28876 -2.01801 2.70009 3.04215 -1.40452 2.87529 3.54507 -0.996577 2.05915 0.330958 -4.39042 2.6364 -0.423601 -4.07829 3.21775 -1.12168 -3.6603 3.76671 -1.8752 -3.29857 4.30954 -2.6294 -2.92907 4.47267 -2.83848 -2.842 2.39098 0.419244 -4.70508 2.22667 -0.376554 -5.28793 2.02694 -1.16043 -5.87585 1.55515 -1.95286 -6.26246 1.13268 -2.68235 -6.80039 0.934184 -3.02581 -7.0528 2.78317 0.474596 -5.06349 2.95265 -0.50943 -5.11801 3.19875 -1.46594 -4.96144 3.37814 -2.43725 -4.80526 3.65529 -3.38933 -4.67591 3.71976 -3.59702 -4.65442 3.10016 0.517932 -5.36049 2.74109 0.566365 -6.29254 2.40165 0.441858 -7.22489 2.13127 0.312983 -8.17898 1.82283 0.170112 -9.11943 1.71136 0.132925 -9.42665 3.39788 0.555294 -5.73557 4.25413 0.0748744 -5.54574 5.10139 -0.389891 -5.28857 5.92029 -0.898703 -5.02302 6.58721 -1.3798 -4.88961 3.66084 0.566629 -6.16683 4.3546 -0.136211 -6.32404 5.15536 -0.699406 -6.52799 5.90986 -1.32631 -6.72219 6.6109 -2.0238 -6.87073 7.1709 -2.57998 -6.98897 3.94955 0.619447 -6.64874 3.19796 0.990798 -7.19392 2.4531 1.34625 -7.75858 1.67943 1.72727 -8.26479 0.852328 2.0807 -8.70182 0.406078 2.24426 -8.91602 4.2441 0.672059 -7.06545 4.86116 -0.046894 -6.74553 5.43979 -0.761647 -6.35271 6.02367 -1.48854 -5.99115 6.65485 -2.23231 -5.77112 6.74418 -2.33871 -5.73959 4.47412 0.73917 -7.4791 3.70301 1.28389 -7.80876 2.91971 1.8011 -8.15363 2.10198 2.28066 -8.47197 1.50218 2.69256 -8.62407 4.67185 0.78432 -7.85472 5.12746 1.66016 -7.69561 5.50769 2.57145 -7.53758 5.86032 3.46961 -7.27497 5.90639 3.62922 -7.22065 4.86095 0.825856 -8.23762 5.77301 0.990216 -7.86195 6.68342 1.11847 -7.46861 7.57053 1.23328 -7.02157 8.4105 1.34542 -6.49065 8.41626 1.34612 -6.48708 5.0642 0.856824 -8.63707 5.74518 0.185669 -8.34414 6.44329 -0.456938 -8.02838 7.14585 -1.10313 -7.73031 7.58266 -1.50754 -7.5429 5.27005 0.839971 -9.00781 5.32601 -0.123915 -8.74744 5.35631 -1.09971 -8.53087 5.39979 -2.09268 -8.42075 5.41362 -2.78014 -8.27115 5.52559 0.819185 -9.45875 5.97635 1.69528 -9.28768 6.47168 2.55469 -9.16091 6.97352 3.41379 -9.06034 7.34256 4.33797 -8.96189 7.34472 4.3435 -8.96122 5.78999 0.789228 -9.95241 6.70327 0.819596 -9.55981 7.67456 0.828752 -9.32211 8.63536 0.697728 -9.07775 9.36371 0.599898 -8.89075 6.01983 0.792541 -10.4853 6.87295 0.403742 -10.1374 7.719 0.0078897 -9.78033 8.5695 -0.380448 -9.42561 9.2142 -0.626449 -9.18491 6.18059 0.808441 -10.8791 6.00534 -0.141139 -11.1391 5.80332 -1.06821 -11.4549 5.57355 -1.9891 -11.7698 5.51586 -2.27025 -11.8695 6.36212 0.825402 -11.3253 6.86485 1.68955 -11.3025 7.33323 2.57303 -11.2938 7.91767 3.3843 -11.3101 8.22299 3.83692 -11.326 6.57697 0.856718 -11.8618 5.62083 0.999939 -12.1173 4.6756 1.17219 -12.3946 3.7422 1.43123 -12.6429 3.31808 1.54556 -12.7626 6.7748 0.883023 -12.3436 6.01745 0.469451 -12.849 5.26177 0.0562434 -13.3571 4.49825 -0.236174 -13.9329 3.9331 -0.546517 -14.4439 6.96584 0.956671 -12.8639 6.95987 -0.0431626 -12.8812 6.95885 -1.04315 -12.8771 7.0128 -2.04109 -12.9119 7.04931 -2.49938 -12.9352 7.11632 0.998041 -13.2714 7.31007 1.96584 -13.1107 7.51623 2.94246 -13.0498 7.65337 3.92528 -12.9262 7.69896 4.29027 -12.8911 7.30268 1.05024 -13.7965 7.14237 2.03716 -13.8136 6.97522 3.01174 -13.9627 6.8104 3.98787 -14.1042 6.76118 4.24031 -14.1429 7.44246 1.06324 -14.227 7.04496 0.189587 -14.5076 6.61868 -0.666855 -14.7988 6.3065 -1.31869 -15.0209 7.58162 1.06524 -14.6826 7.97898 0.216684 -14.3333 8.42066 -0.616726 -14.0011 8.79126 -1.2961 -13.5973 7.72772 1.04574 -15.158 8.30152 1.84523 -14.9803 8.88278 2.62428 -14.7453 9.46147 3.40467 -14.5084 9.51863 3.48694 -14.4829 7.87354 1.02185 -15.7077 7.3596 0.167777 -15.7878 6.84332 -0.685234 -15.8641 6.3556 -1.53362 -15.8938 7.94495 1.01451 -16.0399 7.89545 0.0157391 -16.0365 7.7907 -0.977454 -16.0875 7.72995 -1.83117 -16.1152 8.0205 1.002 -16.3953 7.06481 0.838861 -16.6403 6.13232 0.630406 -16.9353 5.36518 0.497061 -17.1651 8.10349 0.992018 -16.7378 7.25886 1.43213 -17.0426 6.41727 1.85908 -17.3735 6.13684 2.00731 -17.4837 8.20911 0.964683 -17.1365 8.36107 -0.023697 -17.1328 8.49184 -1.01306 -17.0692 8.54599 -1.43779 -17.042 8.32378 0.894242 -17.5737 9.24489 0.575364 -17.3504 10.1612 0.359171 -17.0132 10.6381 0.240055 -16.837 8.43518 0.809127 -18.0294 9.39489 1.06775 -17.9195 10.3054 1.37476 -17.6425 10.7789 1.56714 -17.5497 8.55278 0.715455 -18.5704 7.698 1.11932 -18.8964 6.86063 1.49825 -19.2904 6.46889 1.66602 -19.4744 8.63896 0.635514 -19.0668 8.9265 1.59327 -19.0723 9.09991 2.57281 -19.1744 9.11782 2.69615 -19.1948 8.72132 0.562723 -19.543 8.05533 1.19239 -19.943 7.45792 1.86816 -20.3748 7.25924 2.07129 -20.5155 8.82261 0.498683 -19.9802 8.52863 -0.456921 -20.0002 8.24482 -1.39873 -20.0229 8.93465 0.429792 -20.4509 8.3225 1.20207 -20.6207 7.66313 1.93925 -20.7684 7.65562 1.94728 -20.7701 9.04986 0.348199 -20.9331 8.6539 -0.569689 -20.9066 8.26093 -1.40242 -20.9796 9.14844 0.288831 -21.3942 9.90641 -0.278247 -21.0719 10.6097 -0.855525 -20.8151 9.27083 0.270168 -21.8253 9.18505 -0.707104 -21.6315 9.09267 -1.68105 -21.4379 9.40963 0.272128 -22.2904 10.1925 0.890051 -22.3627 10.7825 1.39776 -22.3946 9.53576 0.267946 -22.7757 9.91117 1.19451 -22.7989 10.2733 2.04981 -22.8471 9.61157 0.282309 -23.3239 10.3789 -0.358184 -23.3549 10.9335 -0.690201 -23.362 9.67263 0.298892 -23.7206 10.1698 1.15988 -23.6134 10.3389 1.56683 -23.5751 9.75886 0.31538 -24.3023 10.6457 -0.12914 -24.1759 10.8384 -0.210204 -24.1584 9.86544 0.306117 -24.8512 9.14555 0.995002 -24.9361 8.88667 1.24255 -24.9668 9.938 0.288821 -25.3662 9.02162 -0.0823505 -25.5162 8.93292 -0.121761 -25.5305 10.0004 0.263703 -25.8272 10.2036 1.24148 -25.7754 10.2368 1.40945 -25.7667 10.0721 0.240431 -26.3183 10.7121 0.800464 -26.593 10.1578 0.213306 -26.8862 10.7977 0.764279 -26.9094 10.2269 0.181655 -27.3616 10.7843 0.38243 -27.5465 10.3017 0.146691 -27.8813 9.7544 -0.160245 -28.0148 10.3539 0.111105 -28.3582 10.3171 0.568242 -28.3531 10.3188 0.0810507 -28.8817 10.5793 -0.147088 -28.9064 10.2864 0.0549278 -29.3044 10.3269 0.296752 -29.2997 10.2383 0.0102643 -29.7286 10.085 0.129865 -29.7392 10.2434 -0.068722 -30.2377 10.184 -0.0188071 -30.2441 0 0 -3 -0.264715 0.340285 -3.27284 -0.501267 0.653302 -3.5485 -0.809898 1.03131 -3.90178 -1.03101 1.38844 -4.19378 -1.19591 1.74673 -4.50265 -1.35011 2.07998 -4.77666 -1.53078 2.37171 -5.03501 -1.743 2.6987 -5.32326 -1.9865 3.0826 -5.66057 -2.21191 3.44934 -6.01266 -2.4141 3.75647 -6.36986 -2.60979 4.05917 -6.71708 -2.79653 4.36141 -7.15123 -2.99342 4.60998 -7.54035 -3.19172 4.84147 -7.91488 -3.35405 5.0242 -8.25487 -3.53322 5.23228 -8.63738 -3.7455 5.46575 -9.12314 -3.93516 5.68196 -9.58527 -4.095 5.8376 -9.96932 -4.25728 6.01134 -10.4136 -4.40115 6.1955 -10.8305 -4.58331 6.39604 -11.2979 -4.75905 6.60052 -11.7502 -4.90153 6.78351 -12.1824 -5.00214 6.8794 -12.6767 -5.09531 7.00296 -13.2115 -5.19155 7.12944 -13.7332 -5.23454 7.26457 -14.2275 -5.24038 7.39916 -14.6995 -5.25184 7.52462 -15.2009 -5.26011 7.61879 -15.5696 -5.27405 7.68895 -16.1041 -5.29233 7.76382 -16.7009 -5.30677 7.82814 -17.2042 -5.32712 7.88417 -17.7798 -5.32309 7.94962 -18.2825 -5.31609 7.97505 -18.7494 -5.28837 7.96223 -19.3027 -5.29335 7.93137 -19.7534 -5.30062 7.91979 -20.2202 -5.29042 7.90859 -20.7054 -5.25138 7.88187 -21.2141 -5.22074 7.86262 -21.6601 -5.2173 7.88472 -22.1632 -5.23018 7.88531 -22.5844 -5.26834 7.89577 -23.161 -5.30328 7.9005 -23.5221 -5.37639 7.89786 -23.9982 -5.41076 7.92761 -24.4253 -5.464 7.93428 -24.9433 -5.50953 7.93924 -25.3812 -5.5739 7.93125 -25.8646 -5.72197 7.99901 -26.3542 -5.85466 8.04969 -26.8223 -5.94676 8.09948 -27.3535 -6.00037 8.17103 -27.8584 -6.03416 8.20849 -28.1273 -0.264715 0.340285 -3.27284 -0.0643145 0.688015 -2.99471 -0.501267 0.653302 -3.5485 -0.639089 0.467642 -3.76772 -0.809898 1.03131 -3.90178 -0.96863 0.875873 -3.98647 -1.03101 1.38844 -4.19378 -1.13207 1.38206 -4.17867 -1.19591 1.74673 -4.50265 -1.19158 1.75445 -4.49499 0 0 -3 -0.366561 -0.169256 -3.29158 -0.710346 -0.310094 -3.61874 -1.0195 -0.460224 -3.94172 -1.35689 -0.620065 -4.29173 -1.64921 -0.792147 -4.61214 -1.89369 -0.960947 -4.92592 -2.17568 -1.16173 -5.29874 -2.41086 -1.34802 -5.64084 -2.64414 -1.54859 -5.98721 -2.69124 -1.59062 -6.0529 
</DataArray>
</Points>
<Lines>
<DataArray type="Int32" Name="connectivity" NumberOfComponents="1" format="ascii" >
0 1 2 3 4 5 6 7 8 9 10 11 12 13 14 15 16 17 18 19 20 21 22 23 24 25 26 27 28 29 30 31 32 33 34 35 36 37 38 39 40 41 42 43 44 45 46 47 48 49 50 51 52 53 54 55 56 57 58 59 60 61 62 63 64 65 66 67 68 69 70 71 72 73 74 75 76 77 78 79 80 81 82 83 84 85 86 87 88 89 90 91 92 93 94 95 96 97 98 99 100 101 102 103 104 105 106 107 108 109 110 111 112 113 114 115 116 117 118 119 120 121 122 123 124 125 126 127 128 129 130 131 132 133 134 135 136 137 138 139 140 141 142 143 144 145 146 147 148 149 150 151 152 153 154 155 156 157 158 159 160 161 162 163 164 165 166 167 168 169 170 171 172 173 174 175 176 177 178 179 180 181 182 183 184 185 186 187 188 189 190 191 192 193 194 195 196 197 198 199 200 201 202 203 204 205 206 207 208 209 210 211 212 213 214 215 216 217 218 219 220 221 222 223 224 225 226 227 228 229 230 231 232 233 234 235 236 237 238 239 240 241 242 243 244 245 246 247 248 249 250 251 252 253 254 255 256 257 258 259 260 261 262 263 264 265 266 267 268 269 270 271 272 273 274 275 276 277 278 279 280 281 282 283 284 285 286 287 288 289 290 291 292 293 294 295 296 297 298 299 300 301 302 303 304 305 306 307 308 309 310 311 312 313 314 315 316 317 318 319 320 321 322 323 324 325 326 327 328 329 330 331 332 333 334 335 336 337 338 339 340 341 342 343 344 345 346 347 348 349 350 351 352 353 354 355 356 357 358 359 360 361 362 363 364 365 366 367 368 369 370 371 372 373 374 375 376 377 378 379 380 381 382 383 384 385 386 387 388 389 390 391 392 393 394 395 396 397 398 399 400 401 402 403 404 405 406 407 408 409 410 411 412 413 414 415 416 417 418 419 420 421 422 423 424 425 426 427 428 429 430 431 432 433 434 435 436 437 438 439 440 441 442 443 444 445 446 447 448 
</DataArray>
<DataArray type="Int32" Name="offsets" NumberOfComponents="1" format="ascii" >
111 117 122 128 134 140 146 152 158 163 169 175 181 186 191 197 202 207 213 218 223 228 233 238 243 248 253 258 262 266 271 275 279 283 287 291 295 299 303 307 311 314 318 321 324 327 330 333 336 339 342 345 348 351 353 355 357 359 361 363 365 367 369 428 430 432 434 436 438 449 
</DataArray>

</Lines>
</Piece>
</PolyData>
</VTKFile>
