<?xml version="1.0"?><VTKFile type="PolyData" version="0.1" byte_order="LittleEndian">
<PolyData>
<Piece NumberOfLines="1" NumberOfPoints="25">
<PointData Scalars=" PointData">
<DataArray type="Float32" Name="time" NumberOfComponents="1" format="ascii" >
0 0.297077 0.594531 0.894238 1.19275 1.49513 1.77843 2.08344 2.38984 2.397 2.70483 3.01406 3.02829 3.33901 3.63735 3.95089 4.26589 4.27337 4.58988 4.90069 5.22016 5.54115 5.54263 5.86516 6 
</DataArray>

</PointData>
<CellData Scalars=" CellData">
<DataArray type="Float32" Name="radius" NumberOfComponents="1" format="ascii" >
0.131367 
</DataArray>
<DataArray type="Float32" Name="subType" NumberOfComponents="1" format="ascii" >
1 
</DataArray>
<DataArray type="Float32" Name="creationTime" NumberOfComponents="1" format="ascii" >
0 
</DataArray>

</CellData>
<Points>
<DataArray type="Float32" Name="Coordinates" NumberOfComponents="3" format="ascii" >
0 0 -3 -0.618814 0.598107 -3.50925 -1.23165 1.02402 -4.17015 -1.88806 1.38264 -4.83387 -2.43351 1.75099 -5.57555 -2.95998 2.1177 -6.34259 -3.352 2.31329 -7.16618 -3.73561 2.55141 -8.05845 -4.07421 2.74245 -8.97978 -4.08222 2.74735 -9.00111 -4.42749 2.95885 -9.91547 -4.7149 3.23902 -10.8314 -4.72843 3.25197 -10.8733 -5.02321 3.53408 -11.7863 -5.16754 3.79078 -12.6956 -5.34694 4.0198 -13.6523 -5.5582 4.25096 -14.602 -5.56304 4.25641 -14.6246 -5.75849 4.43826 -15.5883 -5.89683 4.62107 -16.5385 -6.0421 4.80407 -17.5108 -6.25454 5.04278 -18.4584 -6.25548 5.04388 -18.4627 -6.58043 5.22143 -19.3916 -6.75541 5.25505 -19.7683 
</DataArray>
</Points>
<Lines>
<DataArray type="Int32" Name="connectivity" NumberOfComponents="1" format="ascii" >
0 1 2 3 4 5 6 7 8 9 10 11 12 13 14 15 16 17 18 19 20 21 22 23 24 
</DataArray>
<DataArray type="Int32" Name="offsets" NumberOfComponents="1" format="ascii" >
25 
</DataArray>

</Lines>
</Piece>
</PolyData>
</VTKFile>
