<?xml version="1.0"?><VTKFile type="PolyData" version="0.1" byte_order="LittleEndian">
<PolyData>
<Piece NumberOfLines="34" NumberOfPoints="477">
<PointData Scalars=" PointData">
<DataArray type="Float32" Name="time" NumberOfComponents="1" format="ascii" >
0 0.297077 0.594531 0.894238 1.19275 1.49513 1.77843 2.08344 2.38984 2.397 2.70483 3.01406 3.02829 3.33901 3.63735 3.95089 4.26589 4.27337 4.58988 4.90069 5.22016 5.54115 5.54263 5.86516 6.18923 6.20633 6.53205 6.85934 6.88993 7.21897 7.54961 7.55358 7.88587 8.21981 8.22332 8.55892 8.87373 9.21259 9.55316 9.5635 9.90584 10.2241 10.5698 10.9173 10.934 11.2834 11.6346 11.6445 11.9976 12.3496 12.7064 13.0541 13.4146 13.7357 14.0999 14.4661 14.4742 14.8424 15.2126 15.2133 15.5856 15.9599 15.9763 16.3529 16.6906 17.0711 17.45 17.8348 18.1955 18.5846 18.9759 18.9993 19.3931 19.7892 19.7959 20.1944 20.5952 20.6 21 6.62587 7.26681 7.91593 8.57342 9.23951 9.91441 10.5984 11.2917 11.9945 12.7072 13.4299 14.1631 14.907 15.6619 16.4281 17.2061 17.9961 18.7986 19.6139 20.4424 21 7.28019 7.94202 8.61228 9.29119 9.97897 10.6759 11.3821 12.098 12.8237 13.5596 14.3059 15.063 15.8311 16.6106 17.4018 18.2051 19.0208 19.8494 20.6913 21 7.92133 8.62237 9.33235 10.0515 10.78 11.5182 12.2663 13.0246 13.7933 14.5728 15.3634 16.1653 16.9789 17.8046 18.6427 19.4936 20.3577 21 8.59905 9.23707 9.88322 10.5377 11.2007 11.8726 12.5534 13.2435 13.9431 14.6526 15.372 16.1019 16.8423 17.5938 18.3565 19.1309 19.9173 20.7161 21 9.29131 9.95127 10.6196 11.2966 11.9824 12.6774 13.3816 14.0954 14.8191 15.5529 16.2971 17.052 17.818 18.5953 19.3842 20.1852 20.9987 21 9.9598 10.6445 11.338 12.0404 12.752 13.4731 14.2038 14.9444 15.6953 16.4566 17.2288 18.0121 18.8068 19.6133 20.4319 21 10.6585 11.3311 12.0123 12.7022 13.4012 14.1094 14.8272 15.5547 16.2922 17.04 17.7985 18.5679 19.3485 20.1406 20.9447 21 11.3483 11.9831 12.626 13.2772 13.9369 14.6053 15.2827 15.9693 16.6654 17.3712 18.087 18.8132 19.5499 20.2976 21 12.0548 12.7299 13.4135 14.1059 14.8074 15.5182 16.2385 16.9687 17.7089 18.4594 19.2206 19.9928 20.7762 21 12.786 13.45 14.1225 14.8037 15.4937 16.1929 16.9015 17.6197 18.3479 19.0862 19.835 20.5946 21 13.5399 14.2044 14.8774 15.5591 16.2497 16.9494 17.6585 18.3773 19.1059 19.8448 20.5942 21 14.2725 14.9547 15.6455 16.3452 17.0541 17.7724 18.5003 19.2382 19.9862 20.7446 21 15.0127 15.6229 16.2409 16.8669 17.5011 18.1436 18.7948 19.4549 20.124 20.8025 21 15.7322 16.4402 17.1572 17.8835 18.6193 19.3649 20.1204 20.8863 21 16.496 17.2203 17.9539 18.6969 19.4496 20.2123 20.9853 21 17.2283 17.8798 18.5395 19.2077 19.8847 20.5706 21 18.0162 18.6048 19.201 19.8048 20.4165 21 18.8057 19.5266 20.2567 20.9962 21 19.5901 20.2821 20.9829 21 20.3747 21 7 7.3234 7.6387 7.96488 8.28843 8.61747 8.94796 8.95179 9.28377 9.61265 9.94758 10.2783 10.6162 10.9371 11.278 11.6205 11.6213 11.9654 12.3054 12.6527 13.0015 13.0229 13.3735 13.7258 13.7636 14.1177 14.4735 14.4782 14.8357 15.1949 15.2267 15.5878 15.9135 16.278 16.6104 16.9783 17.348 17.3606 17.7322 18.1057 18.1075 18.4829 18.8342 19.2132 19.5942 19.6058 19.9888 20.3738 20.3882 20.7752 21 14.3201 15.0099 15.7085 16.4162 17.1331 17.8594 18.5956 19.3417 20.0982 20.8652 21 15.0309 15.7068 16.3913 17.0846 17.787 18.4988 19.22 19.9511 20.6923 21 15.7572 16.4157 17.0826 17.7581 18.4424 19.1358 19.8386 20.5508 21 16.4813 17.1744 17.8763 18.5873 19.3076 20.0374 20.777 21 17.2114 17.8277 18.4518 19.084 19.7245 20.3734 21 17.9346 18.6711 19.4171 20.1726 20.9381 21 18.6863 19.3073 19.9362 20.5732 21 19.4386 20.1292 20.8287 21 20.2283 20.9146 21 14 14.2584 14.5164 14.7768 15.0382 15.0509 15.3135 15.5623 15.8269 16.0926 16.0945 16.3613 16.6292 16.6445 16.9135 17.1826 17.4539 17.7262 17.7318 18.0053 18.28 18.3096 18.5855 18.8607 19.139 19.4184 19.4254 19.706 19.9877 20.2708 20.5552 20.5566 20.8422 21 20.2499 20.9475 21 20.8335 21 
</DataArray>

</PointData>
<CellData Scalars=" CellData">
<DataArray type="Float32" Name="radius" NumberOfComponents="1" format="ascii" >
0.131367 0.0488901 0.0536881 0.0424739 0.0521405 0.0478435 0.055187 0.034042 0.0481177 0.0573367 0.0479867 0.0472303 0.0540673 0.0448606 0.0524283 0.0455409 0.0462274 0.0548176 0.0524203 0.0447021 0.0547129 0.141925 0.060763 0.0464132 0.0505033 0.0501495 0.0470279 0.0469064 0.0512052 0.0382487 0.0462349 0.125024 0.0568258 0.0543042 
</DataArray>
<DataArray type="Float32" Name="subType" NumberOfComponents="1" format="ascii" >
1 2 2 2 2 2 2 2 2 2 2 2 2 2 2 2 2 2 2 2 2 4 2 2 2 2 2 2 2 2 2 4 2 2 
</DataArray>
<DataArray type="Float32" Name="creationTime" NumberOfComponents="1" format="ascii" >
0 6.62587 7.28019 7.92133 8.59905 9.29131 9.9598 10.6585 11.3483 12.0548 12.786 13.5399 14.2725 15.0127 15.7322 16.496 17.2283 18.0162 18.8057 19.5901 20.3747 7 14.3201 15.0309 15.7572 16.4813 17.2114 17.9346 18.6863 19.4386 20.2283 14 20.2499 20.8335 
</DataArray>

</CellData>
<Points>
<DataArray type="Float32" Name="Coordinates" NumberOfComponents="3" format="ascii" >
0 0 -3 -0.618814 0.598107 -3.50925 -1.23165 1.02402 -4.17015 -1.88806 1.38264 -4.83387 -2.43351 1.75099 -5.57555 -2.95998 2.1177 -6.34259 -3.352 2.31329 -7.16618 -3.73561 2.55141 -8.05845 -4.07421 2.74245 -8.97978 -4.08222 2.74735 -9.00111 -4.42749 2.95885 -9.91547 -4.7149 3.23902 -10.8314 -4.72843 3.25197 -10.8733 -5.02321 3.53408 -11.7863 -5.16754 3.79078 -12.6956 -5.34694 4.0198 -13.6523 -5.5582 4.25096 -14.602 -5.56304 4.25641 -14.6246 -5.75849 4.43826 -15.5883 -5.89683 4.62107 -16.5385 -6.0421 4.80407 -17.5108 -6.25454 5.04278 -18.4584 -6.25548 5.04388 -18.4627 -6.58043 5.22143 -19.3916 -6.90245 5.26465 -20.3374 -6.9189 5.26615 -20.3874 -7.17421 5.17455 -21.3499 -7.39116 5.037 -22.3163 -7.41143 5.02436 -22.4064 -7.57919 4.94486 -23.3891 -7.7056 4.8698 -24.3782 -7.7069 4.86866 -24.39 -7.73979 4.71557 -25.3777 -7.73684 4.52093 -26.3586 -7.73687 4.51903 -26.3689 -7.70235 4.42795 -27.3641 -7.65806 4.33912 -28.2924 -7.61607 4.22215 -29.2846 -7.58583 4.1045 -30.2772 -7.58488 4.10108 -30.3073 -7.53841 4.10709 -31.3062 -7.60603 4.09764 -32.2287 -7.68491 4.09721 -33.2256 -7.72575 4.14183 -34.2238 -7.72794 4.14229 -34.2716 -7.71353 4.1866 -35.2706 -7.72747 4.27236 -36.2668 -7.72818 4.27488 -36.2949 -7.74718 4.36875 -37.2903 -7.76921 4.46261 -38.2775 -7.80928 4.53876 -39.2738 -7.85706 4.60778 -40.2396 -7.90893 4.66763 -41.2364 -7.85071 4.62852 -42.1196 -7.79531 4.59 -43.1174 -7.75437 4.551 -44.1158 -7.75396 4.54999 -44.1379 -7.74061 4.51585 -45.1372 -7.7606 4.53961 -46.1367 -7.76063 4.53966 -46.1386 -7.7084 4.47986 -47.1354 -7.66077 4.48297 -48.1343 -7.65838 4.48325 -48.1779 -7.62826 4.43133 -49.1761 -7.63995 4.42228 -50.0683 -7.6429 4.39997 -51.0681 -7.58477 4.45687 -52.0547 -7.5675 4.48974 -53.054 -7.49243 4.49893 -53.983 -7.46332 4.49522 -54.9826 -7.44713 4.4818 -55.9824 -7.44687 4.47933 -56.0418 -7.45115 4.42631 -57.0403 -7.36372 4.40019 -58.0362 -7.36209 4.39965 -58.0531 -7.34886 4.32099 -59.0499 -7.35801 4.21398 -60.0441 -7.35813 4.21271 -60.056 -7.44618 4.073 -61.0341 -1.23165 1.02402 -4.17015 -1.67241 0.188854 -4.49913 -2.13424 -0.61134 -4.88175 -2.59645 -1.4598 -5.13958 -3.05097 -2.31523 -5.38788 -3.49125 -3.19558 -5.56436 -4.00357 -3.96411 -5.94761 -4.53117 -4.72591 -6.32352 -5.08046 -5.48439 -6.67422 -5.62881 -6.22412 -7.06424 -6.18679 -6.96225 -7.44346 -6.68146 -7.78498 -7.72352 -7.17378 -8.60904 -8.00378 -7.59931 -9.44647 -8.34674 -8.01369 -10.2966 -8.67175 -8.46372 -11.1289 -8.99531 -8.98869 -11.891 -9.37426 -9.5344 -12.6287 -9.77185 -10.1881 -13.3249 -10.0684 -10.8244 -14.0324 -10.376 -11.2464 -14.5028 -10.5795 -2.43351 1.75099 -5.57555 -2.93363 2.46135 -5.0803 -3.40254 3.14733 -4.52393 -3.83899 3.8641 -3.98009 -4.271 4.57472 -3.42477 -4.57724 5.28464 -2.79055 -4.75193 5.99658 -2.11039 -4.92828 6.68514 -1.40698 -5.12972 7.39879 -0.736056 -5.33387 8.11857 -0.0725553 -5.62574 8.88475 0.499971 -5.8325 9.69135 1.05372 -5.98547 10.5029 1.61756 -6.15007 11.3222 2.16691 -6.33946 12.1508 2.69364 -6.52897 12.9021 3.32583 -6.80447 13.6077 3.97872 -7.13484 14.2714 4.64977 -7.46539 14.9358 5.32015 -7.58139 15.1841 5.55774 -3.352 2.31329 -7.16618 -2.55707 2.91933 -7.19448 -1.70706 3.4459 -7.17996 -0.909392 4.03376 -7.31468 -0.101129 4.58395 -7.52443 0.751991 5.1041 -7.5649 1.62496 5.58802 -7.62607 2.51453 6.02328 -7.76466 3.38273 6.48621 -7.94334 4.23801 7.00354 -7.97295 5.02683 7.61027 -8.07116 5.73182 8.315 -8.15082 6.44483 9.01142 -8.23215 7.21969 9.63519 -8.33459 8.02302 10.2242 -8.42266 8.83411 10.8035 -8.50361 9.64137 11.3928 -8.53567 10.2313 11.8277 -8.56219 -4.08222 2.74735 -9.00111 -4.93053 3.08899 -8.59658 -5.7992 3.361 -8.18255 -6.71739 3.6108 -7.87509 -7.63001 3.88713 -7.57382 -8.54611 4.13315 -7.25722 -9.47432 4.33862 -6.94706 -10.4007 4.6457 -6.72886 -11.2864 5.07421 -6.55041 -12.229 5.38851 -6.4375 -13.1578 5.70583 -6.24631 -14.0121 6.18444 -6.04351 -14.9176 6.59283 -5.92794 -15.8392 6.95297 -5.78339 -16.6852 7.40777 -5.5051 -17.5319 7.85491 -5.21683 -18.3325 8.34069 -4.86596 -19.1378 8.86928 -4.59753 -19.4187 9.04817 -4.48473 -4.72843 3.25197 -10.8733 -5.01482 2.33573 -11.1534 -5.35014 1.44521 -11.4609 -5.69044 0.552762 -11.7571 -6.04045 -0.336339 -12.052 -6.3482 -1.24098 -12.3468 -6.63803 -2.15797 -12.6209 -7.03366 -3.04849 -12.8456 -7.43819 -3.93351 -13.076 -7.68968 -4.86006 -13.3557 -7.9718 -5.79056 -13.5893 -8.27662 -6.72065 -13.7943 -8.58472 -7.63749 -14.0483 -8.9114 -8.5524 -14.2853 -9.19037 -9.46651 -14.5796 -9.47438 -10.3819 -14.8648 -9.79191 -11.2498 -15.2468 -9.79242 -11.2512 -15.2474 -5.16754 3.79078 -12.6956 -4.18472 3.95425 -12.7812 -3.20225 4.13939 -12.8033 -2.20986 4.26191 -12.8156 -1.21671 4.37876 -12.8138 -0.227717 4.51565 -12.8699 0.771425 4.5545 -12.8843 1.76555 4.66176 -12.8986 2.76056 4.7554 -12.933 3.75745 4.83135 -12.954 4.75341 4.92081 -12.9619 5.75157 4.97886 -12.9793 6.74402 5.01767 -13.0958 7.74325 5.02499 -13.1343 8.73951 4.95672 -13.1872 9.42292 4.90726 -13.1802 -5.56304 4.25641 -14.6246 -5.46475 3.28973 -14.8609 -5.32477 2.34045 -15.1425 -5.17349 1.40158 -15.4517 -5.07208 0.468192 -15.796 -4.90927 -0.445988 -16.1672 -4.72727 -1.36105 -16.5271 -4.55107 -2.28474 -16.8673 -4.41027 -3.21478 -17.2067 -4.20455 -4.14044 -17.5242 -3.75238 -4.99336 -17.7852 -3.30276 -5.84552 -18.0528 -2.85908 -6.71729 -18.2606 -2.3794 -7.56042 -18.5036 -1.87089 -8.4105 -18.6406 -1.83605 -8.46805 -18.6517 -5.89683 4.62107 -16.5385 -5.2484 5.35841 -16.7279 -4.55319 6.05166 -16.9178 -3.82713 6.69141 -17.1699 -3.06071 7.27601 -17.4361 -2.2505 7.78141 -17.733 -1.50443 8.4092 -17.9549 -0.800786 9.08802 -18.1649 -0.0657427 9.75518 -18.2857 0.575879 10.5064 -18.4404 1.19941 11.2705 -18.606 1.89573 11.969 -18.7709 2.59339 12.6625 -18.951 3.26178 13.3693 -19.1826 3.90004 14.0085 -19.3869 -6.25548 5.04388 -18.4627 -5.34783 5.01914 -18.8817 -4.49603 5.13881 -19.3917 -3.63093 5.34419 -19.8494 -2.70125 5.49613 -20.1849 -1.74855 5.5549 -20.4831 -0.807561 5.57651 -20.8209 0.139229 5.61772 -21.1401 1.06859 5.64905 -21.5079 1.97367 5.74015 -21.9233 2.87638 5.83373 -22.3432 3.78671 5.76423 -22.7512 4.6809 5.67413 -23.1897 4.93518 5.64872 -23.3113 -6.9189 5.26615 -20.3874 -6.76267 6.25378 -20.4007 -6.64331 7.24625 -20.3733 -6.59334 8.24169 -20.4546 -6.58994 9.24168 -20.451 -6.5694 10.2393 -20.3856 -6.57893 11.2349 -20.2921 -6.54742 12.2233 -20.1439 -6.44896 13.1947 -19.9277 -6.36883 14.1713 -19.7278 -6.28667 15.1492 -19.5356 -6.18271 16.1412 -19.4639 -6.12397 16.6633 -19.4122 -7.41143 5.02436 -22.4064 -8.32673 4.67588 -22.2045 -9.25145 4.41681 -21.9256 -10.1808 4.10937 -21.721 -11.1071 3.82497 -21.4738 -12.0477 3.56465 -21.2562 -13.0002 3.29688 -21.1109 -13.9496 2.99353 -21.0294 -14.8995 2.69151 -20.9486 -15.876 2.48482 -20.8888 -16.84 2.25204 -20.7601 -17.3552 2.17489 -20.6353 -7.7069 4.86866 -24.39 -6.92199 5.45112 -24.6014 -6.08258 5.9924 -24.6503 -5.24762 6.52866 -24.5267 -4.35516 6.95087 -24.3678 -3.52989 7.49403 -24.2131 -2.7027 8.03243 -24.0523 -1.85737 8.51199 -23.8168 -1.01156 9.00223 -23.6065 -0.298708 9.69864 -23.5236 -0.0632083 9.93292 -23.4931 -7.73687 4.51903 -26.3689 -8.62905 4.06966 -26.3232 -9.53796 3.65423 -26.2872 -10.4482 3.24216 -26.2467 -11.35 2.81912 -26.1581 -12.2449 2.40475 -25.9926 -13.1402 1.98874 -25.8331 -14.028 1.54974 -25.6949 -14.9006 1.09139 -25.526 -15.788 0.64112 -25.4272 -16.0441 0.511617 -25.3984 -7.65806 4.33912 -28.2924 -7.11551 5.17879 -28.2682 -6.56446 6.01061 -28.2017 -6.01704 6.84397 -28.1252 -5.44269 7.66218 -28.1507 -4.87363 8.4831 -28.1982 -4.36065 9.33724 -28.2837 -3.84512 10.1905 -28.3626 -3.76944 10.3164 -28.3735 -7.58488 4.10108 -30.3073 -7.38114 5.0213 -30.6415 -7.13743 5.94344 -30.9419 -6.95664 6.88627 -31.2219 -6.63603 7.82413 -31.3547 -6.34067 8.76457 -31.523 -5.97042 9.67502 -31.7074 -5.96339 9.69229 -31.7106 -7.60603 4.09764 -32.2287 -7.44316 3.12396 -32.3882 -7.28062 2.13883 -32.4438 -7.08684 1.15858 -32.4834 -6.88835 0.180999 -32.5536 -6.68503 -0.788926 -32.6874 -6.51412 -1.38224 -32.735 -7.72794 4.14229 -34.2716 -8.18266 3.25167 -34.2674 -8.60008 2.34302 -34.2785 -9.1251 1.49584 -34.197 -9.65873 0.651469 -34.1492 -10.1101 -0.174515 -34.1186 -7.72818 4.27488 -36.2949 -7.159 3.482 -36.5126 -6.66425 2.65328 -36.7742 -6.16362 1.85873 -37.1178 -6.16106 1.85467 -37.1195 -7.76921 4.46261 -38.2775 -6.8672 4.05287 -38.4134 -5.96408 3.65141 -38.5658 -5.94225 3.64141 -38.5695 -7.85706 4.60778 -40.2396 -6.8831 4.72501 -40.1915 0 0 -3 0.490425 -0.670144 -3.55713 0.966438 -1.31516 -4.10474 1.45848 -1.97638 -4.67102 1.92648 -2.60699 -5.27 2.40128 -3.24895 -5.87204 2.79229 -3.86314 -6.55752 2.79706 -3.87014 -6.56543 3.21513 -4.4781 -7.24042 3.71196 -5.05019 -7.87183 4.27521 -5.54742 -8.53176 4.81215 -5.90648 -9.27275 5.37596 -6.22905 -10.0331 5.9106 -6.53745 -10.7492 6.50309 -6.84552 -11.4935 7.11804 -7.1292 -12.2293 7.11938 -7.12981 -12.2309 7.73805 -7.41384 -12.9634 8.27369 -7.74379 -13.7198 8.77118 -8.00725 -14.5463 9.29554 -8.26806 -15.3569 9.32763 -8.28399 -15.4064 9.85301 -8.5541 -16.2132 10.3587 -8.82423 -17.0326 10.4114 -8.85079 -17.1219 10.9426 -8.96389 -17.9615 11.4748 -9.07489 -18.8009 11.4816 -9.07648 -18.8119 11.9845 -9.22837 -19.6628 12.2839 -9.25757 -20.6165 12.3122 -9.25657 -20.7001 12.6166 -9.19655 -21.6507 12.8302 -9.18923 -22.5226 12.9192 -8.98722 -23.4979 12.9714 -8.87082 -24.3968 13.062 -8.73846 -25.3838 13.177 -8.78802 -26.376 13.1802 -8.78933 -26.4097 13.2237 -8.85116 -27.4068 13.2175 -8.83438 -28.4066 13.2175 -8.8343 -28.4115 13.0972 -8.87747 -29.4033 12.917 -8.88568 -30.3171 12.7928 -8.69458 -31.2908 12.6512 -8.49929 -32.2613 12.6464 -8.49322 -32.2908 12.4814 -8.26646 -33.2507 12.3355 -8.02582 -34.2103 12.3298 -8.01679 -34.246 12.348 -7.76322 -35.2131 12.3412 -7.65017 -35.7804 0.966438 -1.31516 -4.10474 0.894691 -2.10972 -3.50181 0.878999 -2.92342 -2.92073 1.0526 -3.7278 -2.35255 1.22614 -4.50181 -1.74363 1.4746 -5.39728 -1.3743 1.64125 -6.26472 -0.905488 1.75496 -7.15789 -0.470391 1.92041 -8.04561 -0.0407545 1.94846 -8.90499 0.469813 1.95008 -9.05479 0.558857 1.92648 -2.60699 -5.27 1.47048 -3.42143 -4.91118 1.02092 -4.24741 -4.57109 0.541419 -5.07839 -4.28904 0.156568 -5.98258 -4.10375 -0.224538 -6.88672 -3.91066 -0.601755 -7.7976 -3.74333 -0.974166 -8.70179 -3.53414 -1.23322 -9.62945 -3.26518 -1.36798 -10.0051 -3.16627 2.79706 -3.87014 -6.56543 1.87273 -4.06061 -6.89609 0.899844 -4.12895 -7.11705 -0.0908187 -4.08844 -7.24723 -1.08244 -4.04437 -7.36867 -2.07626 -4.10732 -7.46008 -3.07092 -4.13179 -7.5603 -4.03559 -4.12838 -7.82375 -4.64244 -4.11775 -7.96719 3.71196 -5.05019 -7.87183 4.12 -5.77187 -7.31265 4.56804 -6.4921 -6.783 5.00324 -7.23667 -6.27682 5.41302 -7.97892 -5.7466 5.87522 -8.66384 -5.18334 6.3454 -9.34268 -4.61933 6.47618 -9.53635 -4.43301 4.81215 -5.90648 -9.27275 5.46256 -6.11421 -8.54213 6.18445 -6.36135 -7.89576 6.89805 -6.63152 -7.24939 7.66938 -6.87488 -6.66132 8.45653 -7.07751 -6.07881 9.22374 -7.17815 -5.52241 5.9106 -6.53745 -10.7492 5.73471 -5.66858 -11.212 5.5176 -4.75661 -11.56 5.37283 -3.83718 -11.9257 5.23477 -2.91316 -12.2822 5.22224 -2.83845 -12.3091 7.11938 -7.12981 -12.2309 7.85733 -6.62573 -11.7822 8.5503 -6.12367 -11.2648 9.2301 -5.69571 -10.6692 9.6792 -5.39585 -10.285 8.27369 -7.74379 -13.7198 8.44612 -8.61288 -13.2562 8.66237 -9.46922 -12.7872 8.7184 -9.67601 -12.6724 9.32763 -8.28399 -15.4064 8.67261 -8.52042 -16.1241 8.59117 -8.55084 -16.2119 0 0 -3 -0.892145 -0.124608 -3.43422 -1.77561 -0.147745 -3.89049 -2.6939 -0.108695 -4.28448 -3.5432 -0.0536831 -4.80952 -3.58365 -0.0504947 -4.83623 -4.35417 0.126971 -5.44845 -4.98763 0.300387 -6.12665 -5.66182 0.484446 -6.84191 -6.33665 0.668701 -7.55651 -6.34155 0.670051 -7.56174 -6.84856 1.03536 -8.34244 -7.3575 1.40534 -9.11967 -7.38652 1.42599 -9.16418 -7.93493 1.80343 -9.91037 -8.41069 2.15192 -10.7135 -8.73792 2.46948 -11.6035 -9.03841 2.74746 -12.5159 -9.04463 2.75304 -12.5345 -9.35361 3.02404 -13.4462 -9.66219 3.29365 -14.3584 -9.69639 3.31982 -14.4569 -10.0123 3.48528 -15.3911 -10.2975 3.63202 -16.331 -10.6067 3.80097 -17.2669 -10.8996 3.92953 -18.2144 -10.9071 3.93266 -18.2378 -11.288 4.05116 -19.1548 -11.6538 4.15217 -20.0793 -12.1155 4.23668 -20.9622 -12.5553 4.27851 -21.8594 -12.5575 4.27878 -21.8639 -12.9986 4.33959 -22.7593 -13.2209 4.37748 -23.2619 -1.77561 -0.147745 -3.89049 -1.60246 -1.13209 -3.8576 -1.58899 -1.20543 -3.85287 -3.58365 -0.0504947 -4.83623 -3.60594 -0.330063 -4.83029 
</DataArray>
</Points>
<Lines>
<DataArray type="Int32" Name="connectivity" NumberOfComponents="1" format="ascii" >
0 1 2 3 4 5 6 7 8 9 10 11 12 13 14 15 16 17 18 19 20 21 22 23 24 25 26 27 28 29 30 31 32 33 34 35 36 37 38 39 40 41 42 43 44 45 46 47 48 49 50 51 52 53 54 55 56 57 58 59 60 61 62 63 64 65 66 67 68 69 70 71 72 73 74 75 76 77 78 79 80 81 82 83 84 85 86 87 88 89 90 91 92 93 94 95 96 97 98 99 100 101 102 103 104 105 106 107 108 109 110 111 112 113 114 115 116 117 118 119 120 121 122 123 124 125 126 127 128 129 130 131 132 133 134 135 136 137 138 139 140 141 142 143 144 145 146 147 148 149 150 151 152 153 154 155 156 157 158 159 160 161 162 163 164 165 166 167 168 169 170 171 172 173 174 175 176 177 178 179 180 181 182 183 184 185 186 187 188 189 190 191 192 193 194 195 196 197 198 199 200 201 202 203 204 205 206 207 208 209 210 211 212 213 214 215 216 217 218 219 220 221 222 223 224 225 226 227 228 229 230 231 232 233 234 235 236 237 238 239 240 241 242 243 244 245 246 247 248 249 250 251 252 253 254 255 256 257 258 259 260 261 262 263 264 265 266 267 268 269 270 271 272 273 274 275 276 277 278 279 280 281 282 283 284 285 286 287 288 289 290 291 292 293 294 295 296 297 298 299 300 301 302 303 304 305 306 307 308 309 310 311 312 313 314 315 316 317 318 319 320 321 322 323 324 325 326 327 328 329 330 331 332 333 334 335 336 337 338 339 340 341 342 343 344 345 346 347 348 349 350 351 352 353 354 355 356 357 358 359 360 361 362 363 364 365 366 367 368 369 370 371 372 373 374 375 376 377 378 379 380 381 382 383 384 385 386 387 388 389 390 391 392 393 394 395 396 397 398 399 400 401 402 403 404 405 406 407 408 409 410 411 412 413 414 415 416 417 418 419 420 421 422 423 424 425 426 427 428 429 430 431 432 433 434 435 436 437 438 439 440 441 442 443 444 445 446 447 448 449 450 451 452 453 454 455 456 457 458 459 460 461 462 463 464 465 466 467 468 469 470 471 472 473 474 475 476 
</DataArray>
<DataArray type="Int32" Name="offsets" NumberOfComponents="1" format="ascii" >
79 100 120 138 157 175 191 207 222 236 249 261 272 283 292 300 307 313 318 322 324 375 386 396 405 413 420 426 431 435 438 472 475 477 
</DataArray>

</Lines>
</Piece>
</PolyData>
</VTKFile>
