<?xml version="1.0"?><VTKFile type="PolyData" version="0.1" byte_order="LittleEndian">
<PolyData>
<Piece NumberOfLines="17" NumberOfPoints="91">
<PointData Scalars=" PointData">
<DataArray type="Float32" Name="time" NumberOfComponents="1" format="ascii" >
0 0.211339 0.669815 1.15391 1.63312 2.10717 2.60524 3.10031 3.6065 4.10913 4.6331 5.17115 5.68843 6.20475 6.73823 7.30893 7.87579 8.45213 9.04506 9.63604 10 1.6473 3.05104 4.62029 6.39936 8.45314 10 2.12414 3.33951 4.69817 6.23849 8.01665 10 2.6279 3.76764 5.04176 6.48624 8.15377 10 3.12683 4.28508 5.5799 7.04783 8.74245 10 3.62066 4.74506 6 7.42474 9.06943 10 4.1398 5.54267 7.11096 8.88894 10 4.65611 6.30912 8.15703 10 5.18432 6.36083 7.67604 9.16711 10 5.70914 6.88664 8.20297 9.69531 10 6.25658 7.5236 8.94001 10 6.81909 8.11463 9.56293 10 7.36025 8.8649 10 7.90075 8.95702 10 8.4596 9.58112 10 9.05786 10 9.65254 10 
</DataArray>

</PointData>
<CellData Scalars=" CellData">
<DataArray type="Float32" Name="radius" NumberOfComponents="1" format="ascii" >
0.0388418 0.0272101 0.0278283 0.026074 0.0237808 0.0309707 0.0310928 0.0265405 0.026586 0.0358169 0.029361 0.0309521 0.0252267 0.0265704 0.0307151 0.0244179 0.0288229 
</DataArray>
<DataArray type="Float32" Name="subType" NumberOfComponents="1" format="ascii" >
1 2 2 2 2 2 2 2 2 2 2 2 2 2 2 2 2 
</DataArray>
<DataArray type="Float32" Name="creationTime" NumberOfComponents="1" format="ascii" >
0 1.6473 2.12414 2.6279 3.12683 3.62066 4.1398 4.65611 5.18432 5.70914 6.25658 6.81909 7.36025 7.90075 8.4596 9.05786 9.65254 
</DataArray>

</CellData>
<Points>
<DataArray type="Float32" Name="Coordinates" NumberOfComponents="3" format="ascii" >
0 0 -3 -0.0303927 -0.014203 -3.4125 -0.067346 -0.0560172 -4.30043 -0.0639298 -0.0733862 -5.22771 -0.0665776 -0.0834685 -6.13379 -0.0367042 -0.164589 -7.01442 -0.0164863 -0.252444 -7.92744 -0.0516247 -0.338573 -8.82235 -0.0832203 -0.354449 -9.72916 0.00926339 -0.579948 -10.5839 0.112832 -0.641563 -11.4897 0.249757 -0.715317 -12.4014 0.430091 -0.734191 -13.2589 0.604056 -0.773723 -14.1029 0.874166 -0.84428 -14.9361 1.06428 -0.964245 -15.8344 1.32231 -1.0599 -16.6972 1.44447 -1.22538 -17.5802 1.5731 -1.30268 -18.4858 1.47177 -1.44157 -19.3696 1.44109 -1.51769 -19.9108 -0.0303927 -0.014203 -3.4125 0.74591 0.599623 -3.55592 1.68752 0.926494 -3.63675 2.6678 1.12277 -3.65969 3.66161 1.23137 -3.63642 4.31556 1.3014 -3.64023 -0.067346 -0.0560172 -4.30043 -0.780487 0.644571 -4.27583 -1.44726 1.3692 -4.44997 -2.29848 1.84782 -4.66527 -3.05315 2.47401 -4.86111 -3.77418 2.99973 -5.1806 -0.0639298 -0.0733862 -5.22771 0.908461 -0.255916 -5.3731 1.85087 -0.442436 -5.65071 2.30358 -0.834356 -6.45162 2.66542 -1.14064 -7.33211 2.97097 -1.38455 -8.1885 -0.0665776 -0.0834685 -6.13379 0.487189 0.731608 -6.30407 1.10952 1.46234 -6.58467 1.69043 2.115 -7.07106 2.30995 2.73245 -7.55577 2.71671 3.13425 -7.86193 -0.0367042 -0.164589 -7.01442 -0.748494 0.537358 -6.9894 -1.43871 1.24988 -6.87588 -2.15362 1.91519 -6.66077 -2.84099 2.6303 -6.53371 -3.1814 2.997 -6.50539 -0.0164863 -0.252444 -7.92744 -0.8601 -0.78522 -7.99427 -1.69426 -1.32002 -8.12906 -2.51832 -1.86829 -8.27165 -2.99469 -2.15105 -8.35628 -0.0516247 -0.338573 -8.82235 -1.04054 -0.454247 -8.91543 -2.02295 -0.611967 -9.01543 -2.76213 -1.09913 -9.0646 -0.0832203 -0.354449 -9.72916 -0.397174 0.572122 -9.93628 -0.820784 1.42034 -10.2542 -1.25954 2.25659 -10.5831 -1.53501 2.62794 -10.7815 0.00926339 -0.579948 -10.5839 0.92389 -0.660698 -10.1878 1.8343 -0.667595 -9.77413 2.74382 -0.67421 -9.35853 2.92445 -0.67275 -9.30547 0.112832 -0.641563 -11.4897 0.278996 0.313244 -11.2433 0.50482 1.28595 -11.19 0.642429 1.94674 -11.1914 0.249757 -0.715317 -12.4014 -0.458348 -1.4182 -12.4687 -1.17348 -2.10511 -12.5981 -1.37354 -2.29461 -12.6441 0.430091 -0.734191 -13.2589 0.0604384 -1.6518 -13.405 -0.288249 -2.22619 -13.5512 0.604056 -0.773723 -14.1029 1.37077 -1.41104 -14.0255 2.11306 -1.90069 -14.0211 0.874166 -0.84428 -14.9361 0.250575 -1.62355 -14.9984 0.0285124 -1.88617 -15.0466 1.06428 -0.964245 -15.8344 1.22192 -1.66115 -15.7292 1.32231 -1.0599 -16.6972 1.52927 -1.29372 -16.6847 
</DataArray>
</Points>
<Lines>
<DataArray type="Int32" Name="connectivity" NumberOfComponents="1" format="ascii" >
0 1 2 3 4 5 6 7 8 9 10 11 12 13 14 15 16 17 18 19 20 21 22 23 24 25 26 27 28 29 30 31 32 33 34 35 36 37 38 39 40 41 42 43 44 45 46 47 48 49 50 51 52 53 54 55 56 57 58 59 60 61 62 63 64 65 66 67 68 69 70 71 72 73 74 75 76 77 78 79 80 81 82 83 84 85 86 87 88 89 90 
</DataArray>
<DataArray type="Int32" Name="offsets" NumberOfComponents="1" format="ascii" >
21 27 33 39 45 51 56 60 65 70 74 78 81 84 87 89 91 
</DataArray>

</Lines>
</Piece>
</PolyData>
</VTKFile>
