<?xml version="1.0"?><VTKFile type="PolyData" version="0.1" byte_order="LittleEndian">
<PolyData>
<Piece NumberOfLines="30" NumberOfPoints="182">
<PointData Scalars=" PointData">
<DataArray type="Float32" Name="time" NumberOfComponents="1" format="ascii" >
0 0.13736 0.264429 0.374476 0.496731 0.619433 0.73473 0.867245 0.975764 1.0954 1.22151 1.36267 1.4913 1.61142 1.7189 1.82712 1.94066 2.04811 2.17971 2.32233 2.47027 2.57903 2.70241 2.85094 2.98507 3.12924 3.24198 3.3869 3.50444 3.62834 3.75806 3.90677 3.99574 4.09109 4.18368 4.29242 4.41301 4.53894 4.68763 4.823 4.95304 5.07389 5.20444 5.33899 5.46653 5.58717 5.71799 5.85343 6.00335 6.11236 6.2724 6.42493 6.56721 6.69487 6.83135 6.98969 7.1226 7.2682 7.40166 7.54778 7.66614 7.78599 7.9302 8.0576 8.20935 8.32444 8.47436 8.59794 8.75071 8.89701 9.03584 9.18265 9.33316 9.47538 9.63335 9.77809 9.88802 10 6.19638 7.6542 9.31232 10 6.33732 8.48026 10 6.45941 7.91474 9.57002 10 6.59508 7.93497 9.45895 10 6.73127 8.22882 9.93213 10 6.85927 8.24388 9.81871 10 7.00642 8.48367 10 7.12696 8.52953 10 7.25987 8.8923 10 7.4 8.56345 9.88675 10 7.55689 8.80199 10 7.69991 9.08391 10 7.83348 9.3938 10 7.95303 9.85264 10 8.07343 9.44867 10 8.19976 9.74535 10 8.31935 9.79467 10 8.46586 9.76356 10 8.62466 10 8.78946 10 8.91063 10 9.04812 10 9.21368 10 9.36323 10 9.52402 10 9.64979 10 9.8115 10 9.94269 10 7 7.13307 7.25838 7.41618 7.55048 7.68227 7.80305 7.91648 8.04476 8.19487 8.34269 8.47925 8.61286 8.76295 8.89756 9.02732 9.14005 9.26706 9.42365 9.57116 9.69177 9.8289 9.95921 10 
</DataArray>

</PointData>
<CellData Scalars=" CellData">
<DataArray type="Float32" Name="radius" NumberOfComponents="1" format="ascii" >
0.147243 0.0484715 0.055323 0.05072 0.0462043 0.0502084 0.0465281 0.0412381 0.0562079 0.0552885 0.0499287 0.04986 0.0565293 0.0547064 0.0562559 0.0418716 0.0394436 0.0466774 0.057676 0.0435541 0.049476 0.0510986 0.0423477 0.0457412 0.0498987 0.0389136 0.0516028 0.0500673 0.0453286 0.129856 
</DataArray>
<DataArray type="Float32" Name="subType" NumberOfComponents="1" format="ascii" >
1 2 2 2 2 2 2 2 2 2 2 2 2 2 2 2 2 2 2 2 2 2 2 2 2 2 2 2 2 4 
</DataArray>
<DataArray type="Float32" Name="creationTime" NumberOfComponents="1" format="ascii" >
0 6.19638 6.33732 6.45941 6.59508 6.73127 6.85927 7.00642 7.12696 7.25987 7.4 7.55689 7.69991 7.83348 7.95303 8.07343 8.19976 8.31935 8.46586 8.62466 8.78946 8.91063 9.04812 9.21368 9.36323 9.52402 9.64979 9.8115 9.94269 7 
</DataArray>

</CellData>
<Points>
<DataArray type="Float32" Name="Coordinates" NumberOfComponents="3" format="ascii" >
0 0 -3 0.494581 0.0317302 -3.26217 0.924678 0.0982239 -3.54215 1.29639 0.176025 -3.77841 1.6992 0.240815 -4.06029 2.05915 0.330958 -4.39042 2.39098 0.419244 -4.70508 2.78317 0.474596 -5.06349 3.10016 0.517932 -5.36049 3.39788 0.555294 -5.73557 3.66084 0.566629 -6.16683 3.94955 0.619447 -6.64874 4.2441 0.672059 -7.06545 4.47412 0.73917 -7.4791 4.67185 0.78432 -7.85472 4.86095 0.825856 -8.23762 5.0642 0.856824 -8.63707 5.27005 0.839971 -9.00781 5.52559 0.819185 -9.45875 5.78999 0.789228 -9.95241 6.01983 0.792541 -10.4853 6.18059 0.808441 -10.8791 6.36212 0.825402 -11.3253 6.57697 0.856718 -11.8618 6.7748 0.883023 -12.3436 6.96584 0.956671 -12.8639 7.11632 0.998041 -13.2714 7.30268 1.05024 -13.7965 7.44246 1.06324 -14.227 7.58162 1.06524 -14.6826 7.72772 1.04574 -15.158 7.87354 1.02185 -15.7077 7.94495 1.01451 -16.0399 8.0205 1.002 -16.3953 8.10349 0.992018 -16.7378 8.20911 0.964683 -17.1365 8.32378 0.894242 -17.5737 8.43518 0.809127 -18.0294 8.55278 0.715455 -18.5704 8.63896 0.635514 -19.0668 8.72132 0.562723 -19.543 8.82261 0.498683 -19.9802 8.93465 0.429792 -20.4509 9.04986 0.348199 -20.9331 9.14844 0.288831 -21.3942 9.27083 0.270168 -21.8253 9.40963 0.272128 -22.2904 9.53576 0.267946 -22.7757 9.61157 0.282309 -23.3239 9.67263 0.298892 -23.7206 9.75886 0.31538 -24.3023 9.86544 0.306117 -24.8512 9.938 0.288821 -25.3662 10.0004 0.263703 -25.8272 10.0721 0.240431 -26.3183 10.1578 0.213306 -26.8862 10.2269 0.181655 -27.3616 10.3017 0.146691 -27.8813 10.3539 0.111105 -28.3582 10.3188 0.0810507 -28.8817 10.2864 0.0549278 -29.3044 10.2383 0.0102643 -29.7286 10.2434 -0.068722 -30.2377 10.2519 -0.133991 -30.6871 10.2702 -0.170186 -31.2253 10.2775 -0.173589 -31.6336 10.2928 -0.167478 -32.164 10.2948 -0.129553 -32.5989 10.2706 -0.090959 -33.1353 10.2812 -0.0486323 -33.6476 10.2431 -0.0298472 -34.1324 10.2279 -0.00210929 -34.645 10.2331 0.00998591 -35.1699 10.1997 0.00274594 -35.6636 10.1451 0.00314402 -36.2092 10.1025 0.0236883 -36.7081 10.0928 0.05948 -37.086 10.109 0.0739479 -37.4715 0.494581 0.0317302 -3.26217 1.02201 0.528744 -2.57311 1.55759 1.0903 -1.94239 1.74235 1.31196 -1.70114 0.924678 0.0982239 -3.54215 0.596381 1.03954 -3.4637 0.381993 1.64181 -3.44639 1.29639 0.176025 -3.77841 1.08277 -0.308085 -4.62694 0.878128 -0.859202 -5.43589 0.821478 -0.993201 -5.62435 1.6992 0.240815 -4.06029 1.97181 0.855197 -3.31988 2.19868 1.54765 -2.63502 2.26945 1.79038 -2.43354 2.05915 0.330958 -4.39042 2.6364 -0.423601 -4.07829 3.21775 -1.12168 -3.6603 3.23873 -1.14771 -3.64428 2.39098 0.419244 -4.70508 2.22667 -0.376554 -5.28793 2.02694 -1.16043 -5.87585 2.00565 -1.24383 -5.93866 2.78317 0.474596 -5.06349 2.95265 -0.50943 -5.11801 3.05132 -1.41228 -5.13521 3.10016 0.517932 -5.36049 2.74109 0.566365 -6.29254 2.44502 0.403968 -7.15544 3.39788 0.555294 -5.73557 4.25413 0.0748744 -5.54574 4.75979 -0.216878 -5.3587 3.66084 0.566629 -6.16683 4.3546 -0.136211 -6.32404 5.15536 -0.699406 -6.52799 5.21776 -0.745937 -6.54356 3.94955 0.619447 -6.64874 3.19796 0.990798 -7.19392 2.56223 1.29593 -7.67698 4.2441 0.672059 -7.06545 4.86116 -0.046894 -6.74553 5.23056 -0.476597 -6.55269 4.47412 0.73917 -7.4791 3.70301 1.28389 -7.80876 3.42226 1.46862 -7.92955 4.67185 0.78432 -7.85472 5.12746 1.66016 -7.69561 5.16004 1.72397 -7.6836 4.86095 0.825856 -8.23762 5.77301 0.990216 -7.86195 6.10672 1.03628 -7.71326 5.0642 0.856824 -8.63707 5.74518 0.185669 -8.34414 5.85257 0.0872538 -8.29574 5.27005 0.839971 -9.00781 5.32601 -0.123915 -8.74744 5.33296 -0.249079 -8.71356 5.52559 0.819185 -9.45875 5.97635 1.69528 -9.28768 6.05537 1.84283 -9.26055 5.78999 0.789228 -9.95241 6.70327 0.819596 -9.55981 6.01983 0.792541 -10.4853 6.81635 0.445137 -10.2628 6.18059 0.808441 -10.8791 6.02205 0.161894 -11.1279 6.36212 0.825402 -11.3253 6.66965 1.44686 -11.2564 6.57697 0.856718 -11.8618 6.0329 0.859683 -12.0526 6.7748 0.883023 -12.3436 6.37845 0.686938 -12.6684 6.96584 0.956671 -12.8639 7.00498 0.587512 -12.909 7.11632 0.998041 -13.2714 7.17074 1.26401 -13.2365 7.30268 1.05024 -13.7965 7.2618 1.18979 -13.8159 7.44246 1.06324 -14.227 7.42955 1.0299 -14.2379 0 0 -3 -0.264715 0.340285 -3.27284 -0.501267 0.653302 -3.5485 -0.809898 1.03131 -3.90178 -1.03101 1.38844 -4.19378 -1.19591 1.74673 -4.50265 -1.35011 2.07998 -4.77666 -1.53078 2.37171 -5.03501 -1.743 2.6987 -5.32326 -1.9865 3.0826 -5.66057 -2.21191 3.44934 -6.01266 -2.4141 3.75647 -6.36986 -2.60979 4.05917 -6.71708 -2.79653 4.36141 -7.15123 -2.99342 4.60998 -7.54035 -3.19172 4.84147 -7.91488 -3.35405 5.0242 -8.25487 -3.53322 5.23228 -8.63738 -3.7455 5.46575 -9.12314 -3.93516 5.68196 -9.58527 -4.095 5.8376 -9.96932 -4.25728 6.01134 -10.4136 -4.40115 6.1955 -10.8305 -4.45034 6.25235 -10.9596 
</DataArray>
</Points>
<Lines>
<DataArray type="Int32" Name="connectivity" NumberOfComponents="1" format="ascii" >
0 1 2 3 4 5 6 7 8 9 10 11 12 13 14 15 16 17 18 19 20 21 22 23 24 25 26 27 28 29 30 31 32 33 34 35 36 37 38 39 40 41 42 43 44 45 46 47 48 49 50 51 52 53 54 55 56 57 58 59 60 61 62 63 64 65 66 67 68 69 70 71 72 73 74 75 76 77 78 79 80 81 82 83 84 85 86 87 88 89 90 91 92 93 94 95 96 97 98 99 100 101 102 103 104 105 106 107 108 109 110 111 112 113 114 115 116 117 118 119 120 121 122 123 124 125 126 127 128 129 130 131 132 133 134 135 136 137 138 139 140 141 142 143 144 145 146 147 148 149 150 151 152 153 154 155 156 157 158 159 160 161 162 163 164 165 166 167 168 169 170 171 172 173 174 175 176 177 178 179 180 181 
</DataArray>
<DataArray type="Int32" Name="offsets" NumberOfComponents="1" format="ascii" >
78 82 85 89 93 97 101 104 107 110 114 117 120 123 126 129 132 135 138 140 142 144 146 148 150 152 154 156 158 182 
</DataArray>

</Lines>
</Piece>
</PolyData>
</VTKFile>
