<?xml version="1.0"?><VTKFile type="PolyData" version="0.1" byte_order="LittleEndian">
<PolyData>
<Piece NumberOfLines="22" NumberOfPoints="137">
<PointData Scalars=" PointData">
<DataArray type="Float32" Name="time" NumberOfComponents="1" format="ascii" >
0 0.813119 0.85629 1.11884 1.36307 1.62781 1.8978 2.14155 2.38706 2.6608 2.94818 3.23013 3.50975 3.793 4.04009 4.30438 4.59949 4.87657 5.15497 5.40915 5.71971 5.98999 6.27717 6.58395 6.88521 7.15428 7.45357 7.77391 8.07763 8.41127 8.70257 9.01078 9.30163 9.61372 9.93771 10 3.98174 5.39025 6.86397 6.90925 7.71124 8.37754 9.10742 9.75176 10 4.26525 5.68276 7.16642 7.21202 7.8324 8.58911 9.29347 9.92634 10 4.52909 5.99588 7.53051 7.57766 8.36658 9.05345 9.779 10 4.81524 6.27954 7.81078 7.85781 8.53867 9.23274 9.94943 10 5.10723 6.59265 8.14629 8.19401 8.99359 9.7542 10 5.37096 6.83563 8.367 8.41403 9.22381 9.9658 10 5.63673 7.1319 8.69509 8.74311 9.46604 10 5.93323 7.43268 8.99921 9.0473 9.76003 10 6.24467 7.67028 9.16119 9.20699 9.91251 10 6.55041 8.02052 9.55744 9.60465 10 6.85378 8.19661 9.60008 9.64318 10 7.1613 8.65383 10 7.42969 8.98307 10 7.71693 9.16265 10 8.03785 9.46597 10 8.33936 9.78047 10 8.64248 10 8.91939 10 9.25794 10 9.55276 10 9.86621 10 
</DataArray>

</PointData>
<CellData Scalars=" CellData">
<DataArray type="Float32" Name="radius" NumberOfComponents="1" format="ascii" >
0.105103 0.05 0.05 0.05 0.05 0.05 0.05 0.05 0.05 0.05 0.05 0.05 0.05 0.05 0.05 0.05 0.05 0.05 0.05 0.05 0.05 0.05 
</DataArray>
<DataArray type="Float32" Name="subType" NumberOfComponents="1" format="ascii" >
1 2 2 2 2 2 2 2 2 2 2 2 2 2 2 2 2 2 2 2 2 2 
</DataArray>
<DataArray type="Float32" Name="creationTime" NumberOfComponents="1" format="ascii" >
0 3.98174 4.26525 4.52909 4.81524 5.10723 5.37096 5.63673 5.93323 6.24467 6.55041 6.85378 7.1613 7.42969 7.71693 8.03785 8.33936 8.64248 8.91939 9.25794 9.55276 9.86621 
</DataArray>

</CellData>
<Points>
<DataArray type="Float32" Name="Coordinates" NumberOfComponents="3" format="ascii" >
0 0 -3 0.00501762 0.00161171 -3.99999 0.0055115 0.00181961 -4.05252 0.0079653 0.000559858 -4.37084 0.0104875 -0.00125716 -4.6651 0.0320691 -0.00824603 -4.98131 0.0274652 0.0227068 -5.30098 0.0229818 0.0355726 -5.58881 0.0185453 0.0479248 -5.87702 0.00687596 0.037733 -6.19629 -0.00438286 0.030773 -6.5293 -0.0138056 0.0198268 -6.85369 0.0147636 0.0258964 -7.17216 -0.00413213 0.0382085 -7.49312 -0.015518 0.0286367 -7.77157 -0.0129763 0.0202522 -8.06785 -0.0132493 0.0189597 -8.39655 -0.0190332 0.0194581 -8.70297 -0.0264056 0.0172117 -9.00872 -0.0262428 -0.00280252 -9.28542 -0.0219648 -0.0260692 -9.62122 -0.0133776 -0.0605788 -9.90992 -0.0118089 -0.046418 -10.2166 -0.003018 -0.0483888 -10.542 -0.00649313 -0.0446906 -10.8593 -0.00237709 -0.0479188 -11.1407 -0.00479019 -0.0442155 -11.4515 -0.0127827 -0.0409819 -11.7817 -0.0200739 -0.0440737 -12.0923 -0.0223583 -0.0533523 -12.4308 -0.0183105 -0.0362021 -12.7237 -0.02958 -0.0288595 -13.0316 -0.0283272 -0.0253832 -13.3203 -0.0328387 -0.021482 -13.6278 -0.0375668 -0.017429 -13.9445 -0.0408954 -0.0151192 -14.005 0.0055115 0.00181961 -4.05252 -0.410614 -0.857806 -4.34897 -0.800866 -1.54802 -4.95833 -0.812945 -1.56873 -4.97636 -1.03375 -1.95603 -5.25229 -1.19293 -2.28121 -5.47616 -1.36341 -2.62935 -5.71666 -1.57203 -2.91937 -5.88305 -1.63581 -3.04085 -5.94298 0.0079653 0.000559858 -4.37084 -0.165717 -0.900278 -4.76875 -0.392816 -1.82523 -5.07352 -0.398733 -1.85318 -5.08268 -0.479497 -2.23041 -5.20238 -0.545157 -2.64425 -5.44086 -0.714873 -2.98907 -5.65218 -0.856294 -3.13763 -5.97903 -0.872296 -3.15615 -6.01609 0.0104875 -0.00125716 -4.6651 -0.400834 -0.799962 -5.10429 -0.55642 -1.56298 -5.73166 -0.559698 -1.58554 -5.75116 -0.405632 -1.96329 -6.03266 -0.247311 -2.28335 -6.25765 -0.0612858 -2.63589 -6.43535 -0.0053387 -2.74171 -6.48871 0.0320691 -0.00824603 -4.98131 -0.728421 0.227128 -5.58649 -1.4603 0.621452 -6.14225 -1.48192 0.633271 -6.15936 -1.77683 0.833412 -6.39916 -2.02009 1.04855 -6.6795 -2.26326 1.26376 -6.96709 -2.27868 1.27944 -6.98787 0.0274652 0.0227068 -5.30098 0.74675 0.517929 -5.7882 1.4653 1.01421 -6.27543 1.48463 1.02885 -6.29309 1.77038 1.21091 -6.65579 2.03154 1.28646 -7.02857 2.10854 1.31347 -7.15071 0.0229818 0.0355726 -5.58881 0.912375 0.441173 -5.79968 1.73584 0.906747 -6.12394 1.76083 0.920203 -6.13366 2.18832 1.13066 -6.31538 2.58803 1.30908 -6.44539 2.60643 1.31726 -6.4506 0.0185453 0.0479248 -5.87702 -0.366352 0.882257 -6.27167 -0.781043 1.69168 -6.68744 -0.794293 1.71555 -6.69987 -0.990456 2.07129 -6.88561 -1.10692 2.29796 -7.0856 0.00687596 0.037733 -6.19629 0.643147 -0.598678 -6.63234 1.19989 -1.35543 -6.97492 1.21663 -1.37786 -6.98573 1.47997 -1.69102 -7.14693 1.55869 -1.80322 -7.19742 -0.00438286 0.030773 -6.5293 0.547963 0.487542 -7.22664 0.934584 0.916659 -8.04296 0.946167 0.92953 -8.06746 1.08385 1.13305 -8.45259 1.0989 1.16118 -8.49857 -0.0138056 0.0198268 -6.85369 -0.506761 0.807592 -7.22304 -0.592851 1.73147 -7.59591 -0.595484 1.75916 -7.60715 -0.625458 1.98758 -7.70327 0.0147636 0.0258964 -7.17216 -0.271116 -0.759783 -7.72078 -0.311774 -1.6973 -8.06632 -0.313449 -1.72517 -8.0773 -0.322055 -1.94917 -8.18051 -0.00413213 0.0382085 -7.49312 0.520011 0.724912 -7.99682 0.907679 1.20027 -8.60747 -0.015518 0.0286367 -7.77157 0.00231384 0.97372 -8.09791 0.0433132 1.56958 -8.30318 -0.0129763 0.0202522 -8.06785 -0.270866 -0.846194 -8.49536 -0.458229 -1.32377 -8.71907 -0.0132493 0.0189597 -8.39655 0.664842 -0.632151 -8.7375 0.942234 -0.813015 -8.88572 -0.0190332 0.0194581 -8.70297 0.798233 0.336633 -9.18409 0.920409 0.3792 -9.25701 -0.0264056 0.0172117 -9.00872 -0.311355 0.822629 -9.47774 -0.0262428 -0.00280252 -9.28542 -0.630825 -0.0268171 -9.60694 -0.0219648 -0.0260692 -9.62122 -0.505251 -0.0437757 -9.82625 -0.0133776 -0.0605788 -9.90992 -0.0687571 -0.361247 -9.99584 -0.0118089 -0.046418 -10.2166 -0.0898582 -0.0106971 -10.262 
</DataArray>
</Points>
<Lines>
<DataArray type="Int32" Name="connectivity" NumberOfComponents="1" format="ascii" >
0 1 2 3 4 5 6 7 8 9 10 11 12 13 14 15 16 17 18 19 20 21 22 23 24 25 26 27 28 29 30 31 32 33 34 35 36 37 38 39 40 41 42 43 44 45 46 47 48 49 50 51 52 53 54 55 56 57 58 59 60 61 62 63 64 65 66 67 68 69 70 71 72 73 74 75 76 77 78 79 80 81 82 83 84 85 86 87 88 89 90 91 92 93 94 95 96 97 98 99 100 101 102 103 104 105 106 107 108 109 110 111 112 113 114 115 116 117 118 119 120 121 122 123 124 125 126 127 128 129 130 131 132 133 134 135 136 
</DataArray>
<DataArray type="Int32" Name="offsets" NumberOfComponents="1" format="ascii" >
36 45 54 62 70 77 84 90 96 102 107 112 115 118 121 124 127 129 131 133 135 137 
</DataArray>

</Lines>
</Piece>
</PolyData>
</VTKFile>
