<?xml version="1.0"?><VTKFile type="PolyData" version="0.1" byte_order="LittleEndian">
<PolyData>
<Piece NumberOfLines="16" NumberOfPoints="196">
<PointData Scalars=" PointData">
<DataArray type="Float32" Name="time" NumberOfComponents="1" format="ascii" >
0 0.297077 0.594531 0.894238 1.19275 1.49513 1.77843 2.08344 2.38984 2.397 2.70483 3.01406 3.02829 3.33901 3.63735 3.95089 4.26589 4.27337 4.58988 4.90069 5.22016 5.54115 5.54263 5.86516 6.18923 6.20633 6.53205 6.85934 6.88993 7.21897 7.54961 7.55358 7.88587 8.21981 8.22332 8.55892 8.87373 9.21259 9.55316 9.5635 9.90584 10.2241 10.5698 10.9173 10.934 11.2834 11.6346 11.6445 11.9976 12.3496 12.7064 13.0541 13.4146 13.7357 14.0999 14.4661 14.4742 14.8424 15 6.62587 7.26681 7.91593 8.57342 9.23951 9.91441 10.5984 11.2917 11.9945 12.7072 13.4299 14.1631 14.907 15 7.28019 7.94202 8.61228 9.29119 9.97897 10.6759 11.3821 12.098 12.8237 13.5596 14.3059 15 7.92133 8.62237 9.33235 10.0515 10.78 11.5182 12.2663 13.0246 13.7933 14.5728 15 8.59905 9.23707 9.88322 10.5377 11.2007 11.8726 12.5534 13.2435 13.9431 14.6526 15 9.29131 9.95127 10.6196 11.2966 11.9824 12.6774 13.3816 14.0954 14.8191 15 9.9598 10.6445 11.338 12.0404 12.752 13.4731 14.2038 14.9444 15 10.6585 11.3311 12.0123 12.7022 13.4012 14.1094 14.8272 15 11.3483 11.9831 12.626 13.2772 13.9369 14.6053 15 12.0548 12.7299 13.4135 14.1059 14.8074 15 12.786 13.45 14.1225 14.8037 15 13.5399 14.2044 14.8774 15 14.2725 14.9547 15 7 7.3234 7.6387 7.96488 8.28843 8.61747 8.94796 8.95179 9.28377 9.61265 9.94758 10.2783 10.6162 10.9371 11.278 11.6205 11.6213 11.9654 12.3054 12.6527 13.0015 13.0229 13.3735 13.7258 13.7636 14.1177 14.4735 14.4782 14.8357 15 14.3201 15 14 14.2584 14.5164 14.7768 15 
</DataArray>

</PointData>
<CellData Scalars=" CellData">
<DataArray type="Float32" Name="radius" NumberOfComponents="1" format="ascii" >
0.131367 0.0488901 0.0536881 0.0424739 0.0521405 0.0478435 0.055187 0.034042 0.0481177 0.0573367 0.0479867 0.0472303 0.0540673 0.141925 0.060763 0.125024 
</DataArray>
<DataArray type="Float32" Name="subType" NumberOfComponents="1" format="ascii" >
1 2 2 2 2 2 2 2 2 2 2 2 2 4 2 4 
</DataArray>
<DataArray type="Float32" Name="creationTime" NumberOfComponents="1" format="ascii" >
0 6.62587 7.28019 7.92133 8.59905 9.29131 9.9598 10.6585 11.3483 12.0548 12.786 13.5399 14.2725 7 14.3201 14 
</DataArray>

</CellData>
<Points>
<DataArray type="Float32" Name="Coordinates" NumberOfComponents="3" format="ascii" >
0 0 -3 -0.618814 0.598107 -3.50925 -1.23165 1.02402 -4.17015 -1.88806 1.38264 -4.83387 -2.43351 1.75099 -5.57555 -2.95998 2.1177 -6.34259 -3.352 2.31329 -7.16618 -3.73561 2.55141 -8.05845 -4.07421 2.74245 -8.97978 -4.08222 2.74735 -9.00111 -4.42749 2.95885 -9.91547 -4.7149 3.23902 -10.8314 -4.72843 3.25197 -10.8733 -5.02321 3.53408 -11.7863 -5.16754 3.79078 -12.6956 -5.34694 4.0198 -13.6523 -5.5582 4.25096 -14.602 -5.56304 4.25641 -14.6246 -5.75849 4.43826 -15.5883 -5.89683 4.62107 -16.5385 -6.0421 4.80407 -17.5108 -6.25454 5.04278 -18.4584 -6.25548 5.04388 -18.4627 -6.58043 5.22143 -19.3916 -6.90245 5.26465 -20.3374 -6.9189 5.26615 -20.3874 -7.17421 5.17455 -21.3499 -7.39116 5.037 -22.3163 -7.41143 5.02436 -22.4064 -7.57919 4.94486 -23.3891 -7.7056 4.8698 -24.3782 -7.7069 4.86866 -24.39 -7.73979 4.71557 -25.3777 -7.73684 4.52093 -26.3586 -7.73687 4.51903 -26.3689 -7.70235 4.42795 -27.3641 -7.65806 4.33912 -28.2924 -7.61607 4.22215 -29.2846 -7.58583 4.1045 -30.2772 -7.58488 4.10108 -30.3073 -7.53841 4.10709 -31.3062 -7.60603 4.09764 -32.2287 -7.68491 4.09721 -33.2256 -7.72575 4.14183 -34.2238 -7.72794 4.14229 -34.2716 -7.71353 4.1866 -35.2706 -7.72747 4.27236 -36.2668 -7.72818 4.27488 -36.2949 -7.74718 4.36875 -37.2903 -7.76921 4.46261 -38.2775 -7.80928 4.53876 -39.2738 -7.85706 4.60778 -40.2396 -7.90893 4.66763 -41.2364 -7.85071 4.62852 -42.1196 -7.79531 4.59 -43.1174 -7.75437 4.551 -44.1158 -7.75396 4.54999 -44.1379 -7.74061 4.51585 -45.1372 -7.73812 4.5159 -45.5635 -1.23165 1.02402 -4.17015 -1.67241 0.188854 -4.49913 -2.13424 -0.61134 -4.88175 -2.59645 -1.4598 -5.13958 -3.05097 -2.31523 -5.38788 -3.49125 -3.19558 -5.56436 -4.00357 -3.96411 -5.94761 -4.53117 -4.72591 -6.32352 -5.08046 -5.48439 -6.67422 -5.62881 -6.22412 -7.06424 -6.18679 -6.96225 -7.44346 -6.68146 -7.78498 -7.72352 -7.17378 -8.60904 -8.00378 -7.23422 -8.71033 -8.04208 -2.43351 1.75099 -5.57555 -2.93363 2.46135 -5.0803 -3.40254 3.14733 -4.52393 -3.83899 3.8641 -3.98009 -4.271 4.57472 -3.42477 -4.57724 5.28464 -2.79055 -4.75193 5.99658 -2.11039 -4.92828 6.68514 -1.40698 -5.12972 7.39879 -0.736056 -5.33387 8.11857 -0.0725553 -5.62574 8.88475 0.499971 -5.89589 9.58646 1.02553 -3.352 2.31329 -7.16618 -2.55707 2.91933 -7.19448 -1.70706 3.4459 -7.17996 -0.909392 4.03376 -7.31468 -0.101129 4.58395 -7.52443 0.751991 5.1041 -7.5649 1.62496 5.58802 -7.62607 2.51453 6.02328 -7.76466 3.38273 6.48621 -7.94334 4.23801 7.00354 -7.97295 4.69935 7.28706 -7.99933 -4.08222 2.74735 -9.00111 -4.93053 3.08899 -8.59658 -5.7992 3.361 -8.18255 -6.71739 3.6108 -7.87509 -7.63001 3.88713 -7.57382 -8.54611 4.13315 -7.25722 -9.47432 4.33862 -6.94706 -10.4007 4.6457 -6.72886 -11.2864 5.07421 -6.55041 -12.229 5.38851 -6.4375 -12.6935 5.50928 -6.36983 -4.72843 3.25197 -10.8733 -5.01482 2.33573 -11.1534 -5.35014 1.44521 -11.4609 -5.69044 0.552762 -11.7571 -6.04045 -0.336339 -12.052 -6.3482 -1.24098 -12.3468 -6.63803 -2.15797 -12.6209 -7.03366 -3.04849 -12.8456 -7.43819 -3.93351 -13.076 -7.53826 -4.15294 -13.1329 -5.16754 3.79078 -12.6956 -4.18472 3.95425 -12.7812 -3.20225 4.13939 -12.8033 -2.20986 4.26191 -12.8156 -1.21671 4.37876 -12.8138 -0.227717 4.51565 -12.8699 0.771425 4.5545 -12.8843 1.76555 4.66176 -12.8986 1.8396 4.66999 -12.9001 -5.56304 4.25641 -14.6246 -5.46475 3.28973 -14.8609 -5.32477 2.34045 -15.1425 -5.17349 1.40158 -15.4517 -5.07208 0.468192 -15.796 -4.90927 -0.445988 -16.1672 -4.72727 -1.36105 -16.5271 -4.68345 -1.58009 -16.6116 -5.89683 4.62107 -16.5385 -5.2484 5.35841 -16.7279 -4.55319 6.05166 -16.9178 -3.82713 6.69141 -17.1699 -3.06071 7.27601 -17.4361 -2.2505 7.78141 -17.733 -1.77557 8.06846 -17.916 -6.25548 5.04388 -18.4627 -5.34783 5.01914 -18.8817 -4.49603 5.13881 -19.3917 -3.63093 5.34419 -19.8494 -2.70125 5.49613 -20.1849 -2.44566 5.52907 -20.2727 -6.9189 5.26615 -20.3874 -6.76267 6.25378 -20.4007 -6.64331 7.24625 -20.3733 -6.59334 8.24169 -20.4546 -6.59008 8.527 -20.4715 -7.41143 5.02436 -22.4064 -8.32673 4.67588 -22.2045 -9.25145 4.41681 -21.9256 -9.41865 4.36648 -21.8787 -7.7069 4.86866 -24.39 -6.92199 5.45112 -24.6014 -6.86939 5.48846 -24.6152 0 0 -3 0.490425 -0.670144 -3.55713 0.966438 -1.31516 -4.10474 1.45848 -1.97638 -4.67102 1.92648 -2.60699 -5.27 2.40128 -3.24895 -5.87204 2.79229 -3.86314 -6.55752 2.79706 -3.87014 -6.56543 3.21513 -4.4781 -7.24042 3.71196 -5.05019 -7.87183 4.27521 -5.54742 -8.53176 4.81215 -5.90648 -9.27275 5.37596 -6.22905 -10.0331 5.9106 -6.53745 -10.7492 6.50309 -6.84552 -11.4935 7.11804 -7.1292 -12.2293 7.11938 -7.12981 -12.2309 7.73805 -7.41384 -12.9634 8.27369 -7.74379 -13.7198 8.77118 -8.00725 -14.5463 9.29554 -8.26806 -15.3569 9.32763 -8.28399 -15.4064 9.85301 -8.5541 -16.2132 10.3587 -8.82423 -17.0326 10.4114 -8.85079 -17.1219 10.9426 -8.96389 -17.9615 11.4748 -9.07489 -18.8009 11.4816 -9.07648 -18.8119 11.9845 -9.22837 -19.6628 12.2063 -9.26578 -20.0618 0.966438 -1.31516 -4.10474 0.892397 -2.10833 -3.52414 0 0 -3 -0.892145 -0.124608 -3.43422 -1.77561 -0.147745 -3.89049 -2.6939 -0.108695 -4.28448 -3.4824 -0.072227 -4.61067 
</DataArray>
</Points>
<Lines>
<DataArray type="Int32" Name="connectivity" NumberOfComponents="1" format="ascii" >
0 1 2 3 4 5 6 7 8 9 10 11 12 13 14 15 16 17 18 19 20 21 22 23 24 25 26 27 28 29 30 31 32 33 34 35 36 37 38 39 40 41 42 43 44 45 46 47 48 49 50 51 52 53 54 55 56 57 58 59 60 61 62 63 64 65 66 67 68 69 70 71 72 73 74 75 76 77 78 79 80 81 82 83 84 85 86 87 88 89 90 91 92 93 94 95 96 97 98 99 100 101 102 103 104 105 106 107 108 109 110 111 112 113 114 115 116 117 118 119 120 121 122 123 124 125 126 127 128 129 130 131 132 133 134 135 136 137 138 139 140 141 142 143 144 145 146 147 148 149 150 151 152 153 154 155 156 157 158 159 160 161 162 163 164 165 166 167 168 169 170 171 172 173 174 175 176 177 178 179 180 181 182 183 184 185 186 187 188 189 190 191 192 193 194 195 
</DataArray>
<DataArray type="Int32" Name="offsets" NumberOfComponents="1" format="ascii" >
59 73 85 96 107 117 126 134 141 147 152 156 159 189 191 196 
</DataArray>

</Lines>
</Piece>
</PolyData>
</VTKFile>
