<?xml version="1.0"?><VTKFile type="PolyData" version="0.1" byte_order="LittleEndian">
<PolyData>
<Piece NumberOfLines="1" NumberOfPoints="40">
<PointData Scalars=" PointData">
<DataArray type="Float32" Name="time" NumberOfComponents="1" format="ascii" >
0 0.143921 0.299858 0.457144 0.615822 0.762604 0.90478 1.06896 1.21812 1.39289 1.57564 1.70295 1.85739 2.02675 2.19891 2.32585 2.44568 2.59446 2.76034 2.89979 3.07741 3.23481 3.39362 3.55701 3.68861 3.86049 4.00967 4.16739 4.30298 4.47637 4.62788 4.76986 4.94241 5.10324 5.25783 5.4231 5.59567 5.74016 5.86784 6 
</DataArray>

</PointData>
<CellData Scalars=" CellData">
<DataArray type="Float32" Name="radius" NumberOfComponents="1" format="ascii" >
0.146454 
</DataArray>
<DataArray type="Float32" Name="subType" NumberOfComponents="1" format="ascii" >
1 
</DataArray>
<DataArray type="Float32" Name="creationTime" NumberOfComponents="1" format="ascii" >
0 
</DataArray>

</CellData>
<Points>
<DataArray type="Float32" Name="Coordinates" NumberOfComponents="3" format="ascii" >
0 0 -3 -0.366738 0.0825494 -3.29938 -0.775544 0.182982 -3.60397 -1.19244 0.253561 -3.9117 -1.60503 0.257814 -4.23862 -1.9863 0.261598 -4.53985 -2.3565 0.300197 -4.82639 -2.79268 0.343647 -5.14394 -3.19513 0.396279 -5.41972 -3.66389 0.467058 -5.7427 -4.13395 0.57229 -6.0976 -4.45857 0.638233 -6.34916 -4.85184 0.708382 -6.65578 -5.28135 0.784749 -6.99232 -5.71816 0.904278 -7.31963 -6.05135 0.98856 -7.54527 -6.37676 1.05574 -7.74451 -6.77657 1.13843 -7.99726 -7.22713 1.21865 -8.27276 -7.618 1.28173 -8.48261 -8.09403 1.38093 -8.77904 -8.49603 1.44685 -9.07498 -8.91603 1.48146 -9.35663 -9.37136 1.48874 -9.60842 -9.74312 1.5107 -9.79874 -10.1888 1.59802 -10.1002 -10.5793 1.67673 -10.3536 -10.9929 1.7665 -10.6159 -11.3527 1.84597 -10.8323 -11.811 1.94759 -11.1096 -12.1967 2.05562 -11.3656 -12.5623 2.13559 -11.6054 -12.9565 2.29859 -11.935 -13.3269 2.46198 -12.2306 -13.6837 2.6129 -12.5154 -14.06 2.76918 -12.8268 -14.4577 2.8739 -13.1678 -14.784 2.96035 -13.4598 -15.0705 3.04025 -13.7177 -15.3581 3.13092 -13.9906 
</DataArray>
</Points>
<Lines>
<DataArray type="Int32" Name="connectivity" NumberOfComponents="1" format="ascii" >
0 1 2 3 4 5 6 7 8 9 10 11 12 13 14 15 16 17 18 19 20 21 22 23 24 25 26 27 28 29 30 31 32 33 34 35 36 37 38 39 
</DataArray>
<DataArray type="Int32" Name="offsets" NumberOfComponents="1" format="ascii" >
40 
</DataArray>

</Lines>
</Piece>
</PolyData>
</VTKFile>
