<?xml version="1.0"?><VTKFile type="PolyData" version="0.1" byte_order="LittleEndian">
<PolyData>
<Piece NumberOfLines="62" NumberOfPoints="593">
<PointData Scalars=" PointData">
<DataArray type="Float32" Name="time" NumberOfComponents="1" format="ascii" >
0 0.600077 0.792047 0.99489 1.1866 1.40803 1.6262 1.83047 2.03819 2.2498 2.4729 2.6786 2.87985 3.1004 3.31296 3.51505 3.73031 3.93494 4.1672 4.39002 4.61531 4.8682 5.11502 5.36511 5.58748 5.84277 6.09114 6.32314 6.55794 6.78681 7.05325 7.31986 7.57253 7.81146 8.07824 8.34906 8.60728 8.88522 9.17516 9.43707 9.68707 9.93879 10.2438 10.5105 10.7997 11.0872 11.358 11.6634 11.9825 12.3006 12.5564 12.881 13.1856 13.4789 13.7556 14.0816 14.3992 14.7303 15 0.600077 2.19107 3.85736 4.56713 5.41275 6.15638 7.09662 7.84022 8.80149 9.81376 10.7306 11.7391 12.6273 13.633 14.6196 15 14.422 15 0.792047 2.38508 4.05179 4.96562 5.75774 6.71368 7.63637 8.43017 9.21755 10.2092 11.3473 12.3408 13.4672 14.5266 15 0.99489 2.52956 4.13573 4.57899 5.39392 6.21708 7.10827 8.08435 9.04992 10.004 10.9115 12.0793 13.0888 14.031 14.9753 15 14.3512 15 1.1866 2.83915 4.57166 5.22085 6.09411 6.89126 7.81854 8.77774 9.61432 10.5728 11.5103 12.5311 13.5884 14.6821 15 1.40803 3.15871 4.99255 5.04762 5.98328 6.81931 7.83124 8.7796 9.81952 10.8273 11.8362 12.7719 13.8359 14.8992 15 1.6262 3.32894 5.1139 5.34268 6.1678 6.94226 7.83338 8.66607 9.41224 10.2464 11.3246 12.3881 13.4302 14.5029 15 1.83047 3.52989 5.31021 6.15851 7.05585 7.88431 8.64404 9.5363 10.4661 11.4208 12.5404 13.5377 14.7273 15 2.03819 3.60826 5.25409 5.62404 6.42253 7.3792 8.24125 9.19471 10.1484 11.099 12.1985 13.1791 14.2968 15 14.4557 15 2.2498 3.89205 5.61056 5.84124 6.65987 7.45 8.16133 8.96405 10.0096 10.9936 12.005 13.0523 14.114 15 2.4729 4.09229 5.78771 6.52945 7.33132 8.11309 8.99391 9.87565 10.7391 11.526 12.6728 13.5833 14.6606 15 2.6786 4.14005 5.67131 6.06069 6.78338 7.50401 8.36154 9.19156 9.9718 10.7269 11.6495 12.7728 13.5936 14.6739 15 14.8412 15 2.87985 4.37289 5.9384 6.29928 7.01804 7.79807 8.57449 9.41802 10.2388 11.2004 12.0678 13.0407 13.8671 14.7914 15 3.1004 4.63142 6.23569 6.72171 7.7031 8.58278 9.44181 10.2457 11.1772 12.0718 13.0377 13.9743 14.8478 15 3.31296 4.8458 6.45071 6.93937 7.74016 8.59302 9.40704 10.2722 11.2711 12.2194 13.1674 14.1676 15 3.51505 5.05583 6.66902 7.51785 8.39435 9.16057 9.9798 10.8986 11.7054 12.6784 13.6445 14.7387 15 3.73031 5.23246 6.8045 7.36226 8.21875 8.99003 9.68938 10.5661 11.3696 12.2416 13.2098 14.2042 15 3.93494 5.44865 7.0359 7.0724 7.73638 8.46962 9.31441 10.1114 10.9887 11.8115 12.8171 13.6597 14.5854 15 4.1672 5.79716 7.50348 7.88238 8.75133 9.46524 10.4408 11.3687 12.2205 13.2025 14.1132 15 4.39002 5.90377 7.49113 7.98272 8.78735 9.591 10.4389 11.3037 12.1604 12.9894 13.8137 14.7806 15 4.61531 6.25387 7.97001 8.70267 9.36944 10.1696 11.0335 11.9301 12.8756 13.99 14.9246 15 4.8682 6.45628 8.12074 8.4112 9.20479 10.0679 10.8325 11.7387 12.5385 13.4054 14.4446 15 5.11502 6.77021 8.50365 9.42315 10.2968 11.2294 12.1738 12.996 14.0106 14.9977 15 5.36511 6.9361 8.57881 9.00407 9.78719 10.6505 11.542 12.45 13.3474 14.2739 15 5.58748 7.13841 8.76525 9.26893 9.98253 10.733 11.4278 12.3375 13.1192 14.0349 14.9786 15 5.84277 7.50838 9.25741 9.42706 10.3628 11.2551 12.0223 12.9484 13.8397 14.7626 15 6.09114 7.56075 9.10171 9.2109 9.96436 10.7678 11.5612 12.393 13.1374 13.9463 14.9567 15 6.32314 7.7977 9.34452 9.82468 10.5218 11.3398 12.056 12.8739 13.6527 14.6343 15 6.55794 8.1044 9.72584 10.0905 10.8788 11.6895 12.5182 13.3174 14.3336 15 6.78681 8.25467 9.79152 10.3287 11.0139 11.716 12.5419 13.3434 14.1508 14.9248 15 7.05325 8.67892 10.3828 10.4421 11.3432 12.1678 13.1515 14.2431 15 7.31986 8.90419 10.5631 11.116 12.0375 12.8232 13.6823 14.6566 15 7.57253 9.10066 10.7016 11.2997 12.1603 13.0894 13.9215 14.8102 15 7.81146 9.47842 11.1343 11.9137 12.7574 13.6 14.413 15 8.07824 9.61964 11.2355 11.302 12.1318 13.0041 13.831 14.637 15 8.34906 9.90391 11.5324 12.9471 13.6673 14.4804 15 8.60728 10.1753 11.8164 12.4753 13.2813 14.1787 15 8.88522 10.637 12.4717 13.6683 14.6616 15 9.17516 10.6764 12.2495 12.6844 13.4835 14.2834 15 9.43707 11.0635 12.4529 13.2655 14.1245 14.9515 15 9.68707 11.2517 12.8911 13.6702 14.5054 15 9.93879 11.5113 12.8552 13.776 14.6016 15 10.2438 11.9537 13.7026 14.5085 15 10.5105 11.9835 13.4983 14.2071 15 10.7997 12.3775 14.0286 14.5079 15 11.0872 12.708 14.4039 14.5682 15 11.358 12.8888 14.493 14.8258 15 11.6634 13.2949 15 11.9825 13.5784 15 12.3006 13.972 15 12.5564 14.13 15 12.881 14.5289 15 13.1856 14.6756 15 13.4789 15 13.7556 15 14.0816 15 14.3992 15 14.7303 15 
</DataArray>

</PointData>
<CellData Scalars=" CellData">
<DataArray type="Float32" Name="radius" NumberOfComponents="1" format="ascii" >
0.101845 0.048552 0.0477708 0.0546828 0.0515751 0.0528447 0.0369336 0.0532678 0.0461663 0.0569531 0.050304 0.0487394 0.0509722 0.0464286 0.0454205 0.051747 0.0540131 0.0553343 0.0512713 0.0575158 0.0545462 0.052304 0.0588516 0.0578699 0.0461398 0.0564867 0.0412877 0.0487257 0.0508509 0.0476603 0.0477734 0.0451107 0.0478696 0.0418639 0.041974 0.0526559 0.0469767 0.0460652 0.052817 0.0480349 0.0534652 0.0443995 0.0448038 0.0487104 0.0477715 0.0439337 0.0460835 0.0534388 0.0510163 0.0494698 0.0492551 0.0481546 0.0533835 0.0507991 0.0579711 0.0538922 0.044316 0.0444399 0.0462999 0.0505925 0.0456811 0.0506063 
</DataArray>
<DataArray type="Float32" Name="subType" NumberOfComponents="1" format="ascii" >
1 2 3 2 2 3 2 2 2 2 2 3 2 2 2 3 2 2 2 2 2 2 2 2 2 2 2 2 2 2 2 2 2 2 2 2 2 2 2 2 2 2 2 2 2 2 2 2 2 2 2 2 2 2 2 2 2 2 2 2 2 2 
</DataArray>
<DataArray type="Float32" Name="creationTime" NumberOfComponents="1" format="ascii" >
0 0.600077 14.422 0.792047 0.99489 14.3512 1.1866 1.40803 1.6262 1.83047 2.03819 14.4557 2.2498 2.4729 2.6786 14.8412 2.87985 3.1004 3.31296 3.51505 3.73031 3.93494 4.1672 4.39002 4.61531 4.8682 5.11502 5.36511 5.58748 5.84277 6.09114 6.32314 6.55794 6.78681 7.05325 7.31986 7.57253 7.81146 8.07824 8.34906 8.60728 8.88522 9.17516 9.43707 9.68707 9.93879 10.2438 10.5105 10.7997 11.0872 11.358 11.6634 11.9825 12.3006 12.5564 12.881 13.1856 13.4789 13.7556 14.0816 14.3992 14.7303 
</DataArray>

</CellData>
<Points>
<DataArray type="Float32" Name="Coordinates" NumberOfComponents="3" format="ascii" >
0 0 -3 0.00530778 0.00109532 -3.95549 0.0136314 0.00495492 -4.2569 0.0158626 0.0177551 -4.57311 -0.00170164 0.00623236 -4.86946 -0.0778017 -0.033924 -5.19916 -0.170325 -0.109553 -5.51018 -0.251388 -0.186159 -5.7991 -0.346961 -0.280256 -6.08162 -0.451848 -0.411607 -6.34957 -0.56199 -0.525945 -6.64 -0.62981 -0.590205 -6.92819 -0.708164 -0.640011 -7.20751 -0.693567 -0.765267 -7.50186 -0.688751 -0.879906 -7.78593 -0.739531 -1.00671 -8.04084 -0.788277 -1.12252 -8.31969 -0.862406 -1.2318 -8.57639 -0.915705 -1.34642 -8.87601 -0.959696 -1.42336 -9.17261 -1.00456 -1.50835 -9.46797 -1.06598 -1.58219 -9.80016 -1.11286 -1.6732 -10.1187 -1.23537 -1.80838 -10.4011 -1.33571 -1.93475 -10.6499 -1.45279 -2.04264 -10.9476 -1.53288 -2.15646 -11.242 -1.64909 -2.26009 -11.5004 -1.77528 -2.31192 -11.7708 -1.8702 -2.36436 -12.043 -1.97584 -2.42738 -12.3579 -2.08329 -2.49557 -12.6681 -2.19496 -2.54065 -12.959 -2.35204 -2.54955 -13.2089 -2.57025 -2.53847 -13.452 -2.76372 -2.54845 -13.7176 -2.92885 -2.53193 -13.9802 -3.09653 -2.44251 -14.2516 -3.20001 -2.39945 -14.575 -3.2678 -2.34914 -14.8694 -3.37359 -2.30833 -15.1361 -3.43672 -2.23529 -15.4087 -3.51135 -2.188 -15.7445 -3.58324 -2.15904 -16.035 -3.62044 -2.12633 -16.354 -3.66943 -2.11854 -16.6679 -3.7191 -2.10817 -16.9601 -3.78093 -2.13302 -17.2844 -3.80414 -2.14304 -17.6258 -3.79366 -2.15491 -17.963 -3.80175 -2.1599 -18.2316 -3.80231 -2.12535 -18.5675 -3.81671 -2.09913 -18.8795 -3.84347 -2.07051 -19.1756 -3.85298 -2.04323 -19.4532 -3.86613 -2.02056 -19.7776 -3.88416 -2.04216 -20.0899 -3.90054 -2.05065 -20.4127 -3.9009 -2.06468 -20.673 0.00530778 0.00109532 -3.95549 0.592134 -0.0593864 -4.76294 1.32732 -0.0829838 -5.44039 1.65615 -0.103694 -5.68741 2.04458 -0.133495 -5.96765 2.37905 -0.0784044 -6.20287 2.76712 -0.208943 -6.50587 3.08248 -0.250587 -6.73719 3.47587 -0.320948 -7.03146 3.87381 -0.410408 -7.33459 4.21272 -0.480243 -7.61888 4.5902 -0.497377 -7.91375 4.90783 -0.477585 -8.1737 5.23194 -0.538987 -8.48409 5.55513 -0.627111 -8.7568 5.6753 -0.668886 -8.8592 1.65615 -0.103694 -5.68741 1.89642 -0.0819116 -5.58265 0.0136314 0.00495492 -4.2569 -0.576566 0.604632 -4.79732 -1.12224 1.1339 -5.44703 -1.47499 1.37555 -5.75844 -1.77705 1.59168 -6.00855 -2.14076 1.88392 -6.25456 -2.47799 2.15606 -6.49588 -2.72663 2.46443 -6.62515 -2.96907 2.76238 -6.75136 -3.1876 3.17633 -6.91793 -3.43227 3.63758 -7.10187 -3.71708 3.99039 -7.22253 -4.03531 4.37265 -7.36173 -4.30008 4.73141 -7.51446 -4.42138 4.8791 -7.59173 0.0158626 0.0177551 -4.57311 0.873992 0.0360655 -5.08622 1.67218 0.151211 -5.67753 1.91783 0.171477 -5.78241 2.36344 0.200032 -5.96808 2.61586 0.097242 -6.35955 2.90777 0.000685151 -6.75859 3.17083 -0.174636 -7.19268 3.42826 -0.336757 -7.61004 3.66844 -0.620592 -7.93877 3.89858 -0.884964 -8.23593 4.19184 -1.26917 -8.54521 4.35755 -1.66675 -8.75839 4.48873 -2.05922 -8.89576 4.62951 -2.44043 -9.02105 4.63314 -2.45024 -9.02428 1.91783 0.171477 -5.78241 1.90875 0.150925 -6.06514 -0.00170164 0.00623236 -4.86946 0.604244 0.783226 -5.04008 1.13303 1.45427 -5.55977 1.32213 1.70184 -5.74498 1.54811 2.00849 -6.03251 1.73265 2.25029 -6.33022 1.85931 2.5336 -6.70076 1.97303 2.78805 -7.10008 2.09171 2.99282 -7.44 2.04323 3.20121 -7.85038 1.99873 3.37602 -8.25263 1.86509 3.54069 -8.66881 1.72567 3.6977 -9.08919 1.46336 3.78028 -9.4725 1.37896 3.79782 -9.57565 -0.0778017 -0.033924 -5.19916 -0.939905 -0.104038 -5.70102 -1.74699 -0.0785056 -6.2909 -1.76967 -0.077151 -6.30939 -2.14222 -0.0238663 -6.62555 -2.4422 0.0741066 -6.91648 -2.80681 0.180698 -7.25261 -3.0643 0.303017 -7.61803 -3.42206 0.528198 -7.87612 -3.73249 0.709999 -8.17459 -4.02857 0.981879 -8.38964 -4.2256 1.28824 -8.58271 -4.39795 1.64558 -8.80924 -4.57023 1.98994 -9.03061 -4.58631 2.02209 -9.05127 -0.170325 -0.109553 -5.51018 0.291815 -0.604276 -6.24616 0.793871 -1.02498 -7.00177 0.866216 -1.07396 -7.09077 1.08827 -1.24743 -7.43318 1.32351 -1.3253 -7.75644 1.5073 -1.42356 -8.16453 1.69272 -1.49191 -8.53322 1.88898 -1.63362 -8.80896 2.11889 -1.78209 -9.10274 2.37947 -1.91757 -9.51447 2.62511 -2.11005 -9.88527 2.86488 -2.27256 -10.2446 2.96895 -2.48952 -10.6386 3.03752 -2.55628 -10.8249 -0.251388 -0.186159 -5.7991 -0.621543 -1.1148 -5.82374 -1.06588 -2.00897 -5.76873 -1.33119 -2.38146 -5.81842 -1.59745 -2.77218 -5.86769 -1.80847 -3.13846 -5.94015 -2.0043 -3.46166 -6.01396 -2.30434 -3.78487 -6.0482 -2.63569 -4.08757 -6.07929 -2.96631 -4.39183 -6.11071 -3.30398 -4.77109 -6.18871 -3.60405 -5.09422 -6.24784 -3.95267 -5.47217 -6.28275 -4.03173 -5.55668 -6.27713 -0.346961 -0.280256 -6.08162 -1.21671 -0.50067 -6.52315 -2.11721 -0.928197 -6.44364 -2.32166 -1.00444 -6.44585 -2.77941 -1.07318 -6.45637 -3.31514 -1.13196 -6.41366 -3.76428 -1.18043 -6.26899 -4.26512 -1.23224 -6.18262 -4.72673 -1.36826 -6.05881 -5.17751 -1.47707 -5.92857 -5.66086 -1.66514 -5.77596 -6.06463 -1.8414 -5.61906 -6.40785 -2.22717 -5.59504 -6.63121 -2.45121 -5.58194 -2.32166 -1.00444 -6.44585 -2.34217 -1.17487 -6.60837 -0.451848 -0.411607 -6.34957 -1.43775 -0.359526 -6.50857 -2.43019 -0.464846 -6.57155 -2.55974 -0.473413 -6.58697 -3.00373 -0.489171 -6.69586 -3.42889 -0.483225 -6.77226 -3.80129 -0.461911 -6.85042 -4.20329 -0.392281 -6.95582 -4.70664 -0.261667 -7.08284 -5.09806 -0.403917 -7.34136 -5.48567 -0.54809 -7.60501 -5.87622 -0.623638 -7.89775 -6.23787 -0.700912 -8.21407 -6.44266 -0.84127 -8.52204 -0.56199 -0.525945 -6.64 -1.24991 0.125259 -6.96047 -1.82816 0.884956 -7.25795 -2.07958 1.21049 -7.35644 -2.38704 1.51906 -7.45926 -2.68288 1.80912 -7.56214 -3.01952 2.114 -7.68323 -3.36477 2.37232 -7.8411 -3.69481 2.59814 -8.02204 -4.00206 2.73238 -8.22315 -4.41651 2.9643 -8.50985 -4.74275 3.13959 -8.72453 -5.10465 3.30473 -9.01538 -5.22142 3.35108 -9.10133 -0.62981 -0.590205 -6.92819 -0.200842 -1.25631 -7.53834 0.34469 -1.81303 -8.1648 0.52062 -1.95717 -8.26054 0.884555 -2.17369 -8.41312 1.24312 -2.38166 -8.55723 1.65048 -2.61348 -8.75706 1.97859 -2.87915 -8.98624 2.25688 -3.12456 -9.22341 2.55875 -3.3269 -9.42607 2.92386 -3.56191 -9.66424 3.35464 -3.79553 -9.98208 3.65068 -3.96844 -10.2142 3.8614 -4.21304 -10.6333 3.92589 -4.28007 -10.7588 0.52062 -1.95717 -8.26054 0.545261 -2.01463 -8.22047 -0.708164 -0.640011 -7.20751 -0.380827 0.0113451 -7.89204 -0.112284 0.394641 -8.77576 -0.0622104 0.479214 -8.97674 0.0581869 0.717869 -9.32394 0.158631 0.929659 -9.7251 0.170966 1.03342 -10.1643 0.113361 1.15114 -10.6243 0.0937743 1.29954 -11.0524 0.0760727 1.47241 -11.5392 0.152225 1.59087 -11.97 0.217657 1.68392 -12.4508 0.252148 1.72372 -12.8554 0.234231 1.77602 -13.2962 0.227761 1.79069 -13.3934 -0.693567 -0.765267 -7.50186 -1.33321 -1.51278 -7.68097 -2.1016 -2.09469 -7.94735 -2.34504 -2.24612 -8.01085 -2.82143 -2.56646 -8.09427 -3.23553 -2.84419 -8.17893 -3.66153 -2.9752 -8.36047 -4.05325 -3.08916 -8.52344 -4.48303 -3.13944 -8.76607 -4.83313 -3.08419 -9.06495 -5.09822 -3.23024 -9.44633 -5.2672 -3.32931 -9.86131 -5.46992 -3.47653 -10.1942 -5.50492 -3.50149 -10.2513 -0.688751 -0.879906 -7.78593 -1.57988 -0.985521 -8.22721 -2.45624 -0.915658 -8.70378 -2.70372 -0.860514 -8.85508 -3.10047 -0.7632 -9.09708 -3.53597 -0.626617 -9.285 -3.9398 -0.497001 -9.46246 -4.3214 -0.409671 -9.73462 -4.77102 -0.369018 -10.0229 -5.2456 -0.423578 -10.1494 -5.72462 -0.452834 -10.1739 -6.21727 -0.462336 -10.1772 -6.59991 -0.570238 -10.1412 -0.739531 -1.00671 -8.04084 -1.15013 -0.438166 -8.75369 -1.87187 0.249018 -8.83652 -2.24778 0.590074 -8.84307 -2.6077 0.952169 -8.81818 -2.89335 1.27844 -8.77036 -3.18834 1.62142 -8.71467 -3.55446 1.95575 -8.66376 -3.87162 2.23999 -8.63536 -4.13956 2.65261 -8.73275 -4.40998 3.04273 -8.82815 -4.6652 3.49144 -8.95732 -4.73163 3.59261 -8.9868 -0.788277 -1.12252 -8.31969 -1.24783 -0.932555 -9.18729 -1.78067 -1.35349 -9.92138 -1.96291 -1.49772 -10.1747 -2.26274 -1.63374 -10.5732 -2.53964 -1.67749 -10.9309 -2.78203 -1.73344 -11.2482 -3.02744 -1.7542 -11.6762 -3.20992 -1.77161 -12.0778 -3.39902 -1.79781 -12.5044 -3.55503 -1.85263 -12.9816 -3.74934 -1.87592 -13.4459 -3.90253 -1.87379 -13.8074 -0.862406 -1.2318 -8.57639 -0.667887 -1.96539 -9.22755 -0.370831 -2.75162 -9.76939 -0.364387 -2.76893 -9.78211 -0.214572 -3.05272 -10.027 -0.0169859 -3.34373 -10.2852 0.204706 -3.72718 -10.4965 0.275015 -4.16982 -10.5507 0.357538 -4.6439 -10.6064 0.462108 -5.06797 -10.6784 0.688553 -5.50019 -10.8749 0.863985 -5.83892 -11.0701 1.14347 -6.14262 -11.2691 1.26518 -6.27149 -11.3639 -0.915705 -1.34642 -8.87601 -0.604997 -2.24357 -9.18998 -0.411853 -3.15992 -9.54069 -0.345303 -3.34069 -9.63791 -0.247316 -3.74007 -9.89776 -0.170931 -4.0647 -10.102 0.0064448 -4.35392 -10.4988 -0.0290435 -4.67612 -10.8581 -0.0500528 -4.96576 -11.1798 -0.162139 -5.30377 -11.5124 -0.245952 -5.59617 -11.8307 -0.327803 -5.87049 -12.1357 -0.959696 -1.42336 -9.17261 -1.84022 -1.11431 -9.53203 -2.70966 -0.86822 -9.96041 -2.96309 -0.779946 -10.0944 -3.36029 -0.616185 -10.3114 -3.75714 -0.46965 -10.514 -4.1424 -0.365766 -10.7854 -4.53175 -0.256703 -11.0429 -4.90103 -0.24091 -11.321 -5.30133 -0.305456 -11.4817 -5.69172 -0.364914 -11.6331 -6.13792 -0.467208 -11.7859 -6.23907 -0.494579 -11.81 -1.00456 -1.50835 -9.46797 -0.311451 -1.89534 -10.0761 0.303556 -2.00379 -10.8571 0.535033 -2.00968 -11.1988 0.698146 -2.02064 -11.5289 0.897943 -2.01199 -11.9133 1.0804 -2.04818 -12.3309 1.27996 -1.88829 -12.717 1.49983 -1.74312 -13.1135 1.72828 -1.53594 -13.5634 1.93012 -1.37048 -13.9234 1.9474 -1.3572 -13.9513 -1.06598 -1.58219 -9.80016 -0.515017 -1.22686 -10.5553 -0.21209 -1.08474 -11.4976 -0.159949 -1.06688 -11.6581 -0.0473855 -1.06184 -12.1002 -0.0742031 -0.98818 -12.5783 -0.0401452 -0.915898 -12.9899 -0.0371881 -0.852761 -13.4707 -0.0265391 -0.8117 -13.8863 -0.0749495 -0.806617 -14.3255 -0.109652 -0.841932 -14.8385 -0.127044 -0.860796 -15.1064 -1.11286 -1.6732 -10.1187 -0.391923 -2.24995 -10.5029 0.272302 -2.94397 -10.7807 0.558343 -3.34567 -10.9168 0.891485 -3.64071 -11.0809 1.18637 -3.99333 -11.2619 1.47891 -4.33542 -11.4493 1.76808 -4.58068 -11.6166 2.16227 -4.83026 -11.7928 2.51818 -5.09185 -11.9596 2.51899 -5.09245 -11.96 -1.23537 -1.80838 -10.4011 -1.15898 -2.80529 -10.3824 -1.02832 -3.79212 -10.4777 -1.05267 -4.04029 -10.5107 -1.0773 -4.48938 -10.5826 -1.03506 -4.96533 -10.6947 -0.917393 -5.43678 -10.7867 -0.784125 -5.89473 -10.9046 -0.655611 -6.3419 -10.9929 -0.599408 -6.79114 -11.142 -0.454641 -7.1043 -11.2613 -1.33571 -1.93475 -10.6499 -2.30392 -1.86343 -10.8896 -3.21563 -1.81312 -11.2973 -3.49275 -1.74967 -11.3925 -3.89085 -1.68809 -11.5006 -4.29885 -1.63658 -11.6231 -4.66802 -1.58738 -11.7343 -5.12717 -1.56351 -11.9224 -5.51164 -1.50944 -12.0722 -5.89332 -1.34772 -12.3047 -6.27484 -1.18746 -12.5404 -6.28353 -1.18402 -12.5455 -1.45279 -2.04264 -10.9476 -1.30282 -1.27367 -11.569 -1.06138 -0.638166 -12.3024 -1.04146 -0.578292 -12.3726 -0.98522 -0.268849 -12.777 -0.875124 -0.00153345 -13.155 -0.770207 0.214329 -13.4745 -0.655097 0.531104 -13.8031 -0.542566 0.823879 -14.1138 -0.414041 1.12363 -14.4171 -0.382141 1.20163 -14.4919 -1.53288 -2.15646 -11.242 -2.36191 -2.66912 -11.0186 -3.03106 -3.22034 -10.5202 -3.0775 -3.25945 -10.4874 -3.44314 -3.50976 -10.3309 -3.83144 -3.75015 -10.1562 -4.21011 -3.92413 -9.93694 -4.59319 -4.09745 -9.70295 -4.95127 -4.20754 -9.51292 -5.27615 -4.45795 -9.33921 -5.6825 -4.74413 -9.12628 -5.69958 -4.75614 -9.11721 -1.64909 -2.26009 -11.5004 -1.41837 -1.83756 -12.3769 -1.2087 -1.39824 -13.2504 -1.1485 -1.26384 -13.5125 -1.13227 -1.1642 -13.9287 -1.13326 -1.07221 -14.4108 -1.13252 -0.892937 -14.7898 -1.29503 -0.690619 -15.1785 -1.54749 -0.503456 -15.4777 -1.8578 -0.273802 -15.8436 -1.95293 -0.17992 -15.9842 -1.77528 -2.31192 -11.7708 -2.76898 -2.22385 -11.7016 -3.72549 -1.93213 -11.7016 -3.92895 -1.85382 -11.7122 -4.38225 -1.75738 -11.7316 -4.77935 -1.63909 -11.9444 -5.20141 -1.59317 -12.1331 -5.60983 -1.5706 -12.2876 -6.11383 -1.5357 -12.4814 -6.43199 -1.45999 -12.5945 -1.8702 -2.36436 -12.043 -1.489 -1.6909 -12.6763 -1.65356 -1.10617 -13.4707 -1.73665 -0.915222 -13.7376 -1.82598 -0.66982 -14.0716 -2.01948 -0.367314 -14.2994 -2.24472 -0.0196551 -14.5586 -2.41563 0.307225 -14.8378 -2.65496 0.582795 -15.1088 -2.87465 0.822742 -15.3831 -2.89319 0.845896 -15.4111 -1.97584 -2.42738 -12.3579 -1.21711 -2.17081 -12.9566 -0.737196 -1.78238 -13.7433 -0.721626 -1.76912 -13.7703 -0.459549 -1.61824 -14.1796 -0.209409 -1.50364 -14.5413 0.109664 -1.40429 -14.9507 0.469531 -1.40515 -15.3921 0.643699 -1.43981 -15.7334 -2.08329 -2.49557 -12.6681 -1.89771 -2.17714 -13.5977 -1.65196 -2.18251 -14.567 -1.5916 -2.15608 -14.8832 -1.50065 -2.08487 -15.3975 -1.37221 -1.99982 -15.8082 -1.29937 -2.00508 -16.2711 -1.23726 -1.99673 -16.7851 -1.1791 -1.98807 -16.9543 -2.19496 -2.54065 -12.959 -1.72918 -1.94188 -13.6106 -1.55017 -1.32623 -14.378 -1.47813 -1.10183 -14.6522 -1.43987 -0.792652 -15.0548 -1.38369 -0.471632 -15.4793 -1.37487 -0.170235 -15.8357 -1.22865 0.219888 -16.086 -1.19906 0.302506 -16.1384 -2.35204 -2.54955 -13.2089 -3.07237 -2.04527 -13.6852 -3.46231 -1.4685 -14.3289 -3.6453 -1.16944 -14.5801 -3.72771 -0.750687 -14.7419 -3.70656 -0.355082 -14.9449 -3.68497 0.011476 -15.148 -3.68593 0.273681 -15.2879 -2.57025 -2.53847 -13.452 -3.24888 -1.80834 -13.5318 -3.62454 -0.896068 -13.3686 -3.6392 -0.85946 -13.361 -3.83987 -0.431838 -13.2161 -4.01849 0.03913 -13.1642 -4.24043 0.451064 -13.1574 -4.40094 0.863356 -13.1081 -4.46832 1.04728 -13.087 -2.76372 -2.54845 -13.7176 -3.50124 -1.8796 -13.8108 -4.36491 -1.38829 -13.6982 -5.07682 -0.996739 -13.5233 -5.45323 -0.885842 -13.4039 -5.79279 -0.649076 -13.2202 -6.004 -0.500328 -13.1026 -2.92885 -2.53193 -13.9802 -3.00112 -1.73649 -14.5819 -3.38547 -1.08588 -15.2369 -3.51856 -0.827548 -15.4948 -3.73496 -0.59641 -15.8361 -3.91473 -0.521708 -16.3031 -4.15077 -0.367031 -16.656 -3.09653 -2.44251 -14.2516 -3.99903 -2.1424 -13.9427 -4.90684 -1.78693 -13.7201 -5.36848 -1.52875 -13.3831 -5.65283 -1.21347 -13.1077 -5.74671 -1.10567 -13.0167 -3.20001 -2.39945 -14.575 -3.41491 -3.16434 -15.1822 -3.96933 -3.86491 -15.6315 -4.08695 -4.08541 -15.7287 -4.28877 -4.49594 -15.8853 -4.492 -4.90345 -16.0111 -4.68737 -5.26011 -16.0865 -3.2678 -2.34914 -14.8694 -2.77654 -1.73844 -15.4904 -2.49347 -1.37368 -16.1671 -2.41182 -1.31274 -16.6204 -2.30421 -1.20035 -17.0743 -2.21887 -1.09069 -17.5035 -2.21419 -1.08447 -17.5285 -3.37359 -2.30833 -15.1361 -2.68906 -1.87575 -15.7228 -1.93192 -1.65421 -16.3374 -1.61786 -1.56615 -16.66 -1.28256 -1.49666 -16.9969 -1.09429 -1.48884 -17.2026 -3.43672 -2.23529 -15.4087 -4.18313 -1.73751 -15.8504 -4.71132 -1.28579 -16.2837 -5.04507 -1.04243 -16.6361 -5.34134 -0.866693 -16.9626 -5.47571 -0.777672 -17.1195 -3.51135 -2.188 -15.7445 -4.06206 -2.94707 -16.0917 -4.60396 -3.6423 -16.511 -4.80061 -3.90178 -16.7987 -4.89225 -4.02952 -17.0063 -3.58324 -2.15904 -16.035 -3.32639 -2.99583 -16.5185 -3.15035 -3.80407 -17.0488 -3.0402 -4.157 -17.2954 -2.97958 -4.5617 -17.5574 -3.62044 -2.12633 -16.354 -3.51232 -2.91198 -16.9632 -3.65458 -3.58014 -17.6935 -3.6959 -3.76804 -17.8992 -3.75907 -3.94015 -18.1178 -3.66943 -2.11854 -16.6679 -4.62988 -2.13418 -16.946 -5.6077 -1.9856 -17.0935 -5.69863 -1.96761 -17.1116 -5.93535 -1.93102 -17.1687 -3.7191 -2.10817 -16.9601 -3.35174 -2.91545 -17.422 -3.07414 -3.59968 -18.0964 -3.01988 -3.7269 -18.2429 -2.99409 -3.79116 -18.3214 -3.78093 -2.13302 -17.2844 -3.69635 -1.22498 -17.6947 -3.62796 -0.308846 -18.0811 -3.80414 -2.14304 -17.6258 -4.5885 -2.19658 -18.2438 -5.36589 -2.14884 -18.5911 -3.79366 -2.15491 -17.963 -3.02566 -1.72281 -18.4357 -2.57631 -1.43841 -18.6992 -3.80175 -2.1599 -18.2316 -4.39489 -1.65769 -18.8608 -4.71518 -1.44301 -19.2295 -3.80231 -2.12535 -18.5675 -4.77977 -2.10584 -18.7777 -5.05196 -2.10219 -18.8327 -3.81671 -2.09913 -18.8795 -2.82642 -2.21103 -18.9619 -2.62054 -2.24183 -18.9995 -3.84347 -2.07051 -19.1756 -3.18317 -1.75958 -19.6821 -3.85298 -2.04323 -19.4532 -4.45892 -1.63465 -19.836 -3.86613 -2.02056 -19.7776 -3.60763 -1.67854 -20.1939 -3.88416 -2.04216 -20.0899 -3.57027 -2.05484 -20.3894 -3.90054 -2.05065 -20.4127 -3.97951 -1.89504 -20.4635 
</DataArray>
</Points>
<Lines>
<DataArray type="Int32" Name="connectivity" NumberOfComponents="1" format="ascii" >
0 1 2 3 4 5 6 7 8 9 10 11 12 13 14 15 16 17 18 19 20 21 22 23 24 25 26 27 28 29 30 31 32 33 34 35 36 37 38 39 40 41 42 43 44 45 46 47 48 49 50 51 52 53 54 55 56 57 58 59 60 61 62 63 64 65 66 67 68 69 70 71 72 73 74 75 76 77 78 79 80 81 82 83 84 85 86 87 88 89 90 91 92 93 94 95 96 97 98 99 100 101 102 103 104 105 106 107 108 109 110 111 112 113 114 115 116 117 118 119 120 121 122 123 124 125 126 127 128 129 130 131 132 133 134 135 136 137 138 139 140 141 142 143 144 145 146 147 148 149 150 151 152 153 154 155 156 157 158 159 160 161 162 163 164 165 166 167 168 169 170 171 172 173 174 175 176 177 178 179 180 181 182 183 184 185 186 187 188 189 190 191 192 193 194 195 196 197 198 199 200 201 202 203 204 205 206 207 208 209 210 211 212 213 214 215 216 217 218 219 220 221 222 223 224 225 226 227 228 229 230 231 232 233 234 235 236 237 238 239 240 241 242 243 244 245 246 247 248 249 250 251 252 253 254 255 256 257 258 259 260 261 262 263 264 265 266 267 268 269 270 271 272 273 274 275 276 277 278 279 280 281 282 283 284 285 286 287 288 289 290 291 292 293 294 295 296 297 298 299 300 301 302 303 304 305 306 307 308 309 310 311 312 313 314 315 316 317 318 319 320 321 322 323 324 325 326 327 328 329 330 331 332 333 334 335 336 337 338 339 340 341 342 343 344 345 346 347 348 349 350 351 352 353 354 355 356 357 358 359 360 361 362 363 364 365 366 367 368 369 370 371 372 373 374 375 376 377 378 379 380 381 382 383 384 385 386 387 388 389 390 391 392 393 394 395 396 397 398 399 400 401 402 403 404 405 406 407 408 409 410 411 412 413 414 415 416 417 418 419 420 421 422 423 424 425 426 427 428 429 430 431 432 433 434 435 436 437 438 439 440 441 442 443 444 445 446 447 448 449 450 451 452 453 454 455 456 457 458 459 460 461 462 463 464 465 466 467 468 469 470 471 472 473 474 475 476 477 478 479 480 481 482 483 484 485 486 487 488 489 490 491 492 493 494 495 496 497 498 499 500 501 502 503 504 505 506 507 508 509 510 511 512 513 514 515 516 517 518 519 520 521 522 523 524 525 526 527 528 529 530 531 532 533 534 535 536 537 538 539 540 541 542 543 544 545 546 547 548 549 550 551 552 553 554 555 556 557 558 559 560 561 562 563 564 565 566 567 568 569 570 571 572 573 574 575 576 577 578 579 580 581 582 583 584 585 586 587 588 589 590 591 592 
</DataArray>
<DataArray type="Int32" Name="offsets" NumberOfComponents="1" format="ascii" >
59 75 77 92 108 110 125 140 155 169 183 185 199 213 228 230 245 259 272 285 298 312 324 337 349 361 372 383 395 406 418 429 439 450 459 468 477 485 494 501 508 514 521 528 534 540 545 550 555 560 565 568 571 574 577 580 583 585 587 589 591 593 
</DataArray>

</Lines>
</Piece>
</PolyData>
</VTKFile>
