<?xml version="1.0"?><VTKFile type="PolyData" version="0.1" byte_order="LittleEndian">
<PolyData>
<Piece NumberOfLines="17" NumberOfPoints="140">
<PointData Scalars=" PointData">
<DataArray type="Float32" Name="time" NumberOfComponents="1" format="ascii" >
0 0.113636 0.227273 0.340909 0.363636 0.477273 0.590909 0.704545 0.818182 0.909091 1.02273 1.13636 1.25 1.36364 1.45455 1.56818 1.68182 1.79545 1.90909 2 2.11364 2.22727 2.34091 2.45455 2.54545 2.65909 2.77273 2.88636 3 3.09091 3.20455 3.31818 3.43182 3.54545 3.63636 3.75 3.86364 3.97727 4.09091 4.18182 4.29545 4.40909 4.52273 4.63636 4.72727 4.84091 4.95455 5.06818 5.18182 5.27273 5.38636 5.5 5.61364 5.72727 5.81818 5.93182 6 0.636364 1.26136 1.88636 2.51136 2.63636 3.26136 3.88636 4.51136 5.13636 5.76136 6 3.38636 4.63636 5.88636 6 5.88636 6 1.18182 1.80682 2.43182 3.05682 3.18182 3.80682 4.43182 5.05682 5.68182 6 3.93182 5.18182 6 1.72727 2.35227 2.97727 3.60227 3.72727 4.35227 4.97727 5.60227 6 4.47727 5.72727 6 2.27273 2.89773 3.52273 4.14773 4.27273 4.89773 5.52273 6 5.02273 6 2.81818 3.44318 4.06818 4.69318 4.81818 5.44318 6 5.56818 6 3.36364 3.98864 4.61364 5.23864 5.36364 5.98864 6 3.90909 4.53409 5.15909 5.78409 5.90909 6 4.45455 5.07955 5.70455 6 5 5.625 6 5.54545 6 
</DataArray>

</PointData>
<CellData Scalars=" CellData">
<DataArray type="Float32" Name="radius" NumberOfComponents="1" format="ascii" >
0.05 0.03 0.02 0.02 0.03 0.02 0.03 0.02 0.03 0.02 0.03 0.02 0.03 0.03 0.03 0.03 0.03 
</DataArray>
<DataArray type="Float32" Name="subType" NumberOfComponents="1" format="ascii" >
1 2 3 3 2 3 2 3 2 3 2 3 2 2 2 2 2 
</DataArray>
<DataArray type="Float32" Name="creationTime" NumberOfComponents="1" format="ascii" >
0 0.636364 3.38636 5.88636 1.18182 3.93182 1.72727 4.47727 2.27273 5.02273 2.81818 5.56818 3.36364 3.90909 4.45455 5 5.54545 
</DataArray>

</CellData>
<Points>
<DataArray type="Float32" Name="Coordinates" NumberOfComponents="3" format="ascii" >
0 0 -3 0 0 -3.25 0 0 -3.5 0 0 -3.75 0 0 -3.8 0 0 -4.05 0 0 -4.3 0 0 -4.55 0 0 -4.8 0 0 -5 0 0 -5.25 0 0 -5.5 0 0 -5.75 0 0 -6 0 0 -6.2 0 0 -6.45 0 0 -6.7 0 0 -6.95 0 0 -7.2 0 0 -7.4 0 0 -7.65 0 0 -7.9 0 0 -8.15 0 0 -8.4 0 0 -8.6 0 0 -8.85 0 0 -9.1 0 0 -9.35 0 0 -9.6 0 0 -9.8 0 0 -10.05 0 0 -10.3 0 0 -10.55 0 0 -10.8 0 0 -11 0 0 -11.25 0 0 -11.5 0 0 -11.75 0 0 -12 0 0 -12.2 0 0 -12.45 0 0 -12.7 0 0 -12.95 0 0 -13.2 0 0 -13.4 0 0 -13.65 0 0 -13.9 0 0 -14.15 0 0 -14.4 0 0 -14.6 0 0 -14.85 0 0 -15.1 0 0 -15.35 0 0 -15.6 0 0 -15.8 0 0 -16.05 0 0 -16.2 0 0 -3.8 -0.231471 -0.0267338 -3.89059 -0.462942 -0.0534675 -3.98118 -0.694413 -0.0802013 -4.07177 -0.740707 -0.085548 -4.08989 -0.972179 -0.112282 -4.18048 -1.20365 -0.139016 -4.27107 -1.43512 -0.165749 -4.36165 -1.66659 -0.192483 -4.45224 -1.89806 -0.219217 -4.54283 -1.98644 -0.229424 -4.57742 -0.740707 -0.085548 -4.08989 -0.92455 0.00716168 -3.94809 -1.10839 0.0998714 -3.80629 -1.1251 0.1083 -3.7934 -1.66659 -0.192483 -4.45224 -1.67391 -0.213875 -4.45455 0 0 -5 -0.105798 0.207606 -5.09059 -0.211595 0.415213 -5.18118 -0.317393 0.622819 -5.27177 -0.338552 0.664341 -5.28989 -0.44435 0.871947 -5.38048 -0.550147 1.07955 -5.47107 -0.655945 1.28716 -5.56165 -0.761742 1.49477 -5.65224 -0.815603 1.60046 -5.69836 -0.338552 0.664341 -5.28989 -0.199533 0.796321 -5.45037 -0.108538 0.882709 -5.55541 0 0 -6.2 0.068906 0.222588 -6.29059 0.137812 0.445176 -6.38118 0.206718 0.667765 -6.47177 0.220499 0.712282 -6.48989 0.289405 0.934871 -6.58048 0.358311 1.15746 -6.67107 0.427217 1.38005 -6.76165 0.471066 1.52169 -6.8193 0.220499 0.712282 -6.48989 0.0503703 0.894585 -6.47194 0.0132513 0.93436 -6.46803 0 0 -7.4 0.230203 -0.0360572 -7.49059 0.460406 -0.0721143 -7.58118 0.690609 -0.108171 -7.67177 0.73665 -0.115383 -7.68989 0.966853 -0.15144 -7.78048 1.19706 -0.187497 -7.87107 1.37285 -0.215032 -7.94024 0.73665 -0.115383 -7.68989 0.762598 -0.0681311 -7.87776 0 0 -8.6 0.129535 -0.193686 -8.69059 0.259071 -0.387372 -8.78118 0.388606 -0.581057 -8.87177 0.414513 -0.619794 -8.88989 0.544048 -0.81348 -8.98048 0.659452 -0.986037 -9.06118 0.414513 -0.619794 -8.88989 0.468845 -0.657881 -8.8346 0 0 -9.8 -0.0397026 -0.229602 -9.89059 -0.0794053 -0.459205 -9.98118 -0.119108 -0.688807 -10.0718 -0.127048 -0.734728 -10.0899 -0.166751 -0.96433 -10.1805 -0.167473 -0.968505 -10.1821 0 0 -11 -0.216458 -0.0862525 -11.0906 -0.432916 -0.172505 -11.1812 -0.649374 -0.258757 -11.2718 -0.692666 -0.276008 -11.2899 -0.72415 -0.288554 -11.3031 0 0 -12.2 -0.225642 -0.0581325 -12.2906 -0.451283 -0.116265 -12.3812 -0.55795 -0.143746 -12.424 0 0 -13.4 0.224544 0.0622373 -13.4906 0.359271 0.0995797 -13.5449 0 0 -14.6 0.147928 0.0826721 -14.6659 
</DataArray>
</Points>
<Lines>
<DataArray type="Int32" Name="connectivity" NumberOfComponents="1" format="ascii" >
0 1 2 3 4 5 6 7 8 9 10 11 12 13 14 15 16 17 18 19 20 21 22 23 24 25 26 27 28 29 30 31 32 33 34 35 36 37 38 39 40 41 42 43 44 45 46 47 48 49 50 51 52 53 54 55 56 57 58 59 60 61 62 63 64 65 66 67 68 69 70 71 72 73 74 75 76 77 78 79 80 81 82 83 84 85 86 87 88 89 90 91 92 93 94 95 96 97 98 99 100 101 102 103 104 105 106 107 108 109 110 111 112 113 114 115 116 117 118 119 120 121 122 123 124 125 126 127 128 129 130 131 132 133 134 135 136 137 138 139 
</DataArray>
<DataArray type="Int32" Name="offsets" NumberOfComponents="1" format="ascii" >
57 68 72 74 84 87 96 99 107 109 116 118 125 131 135 138 140 
</DataArray>

</Lines>
</Piece>
</PolyData>
</VTKFile>
