<?xml version="1.0"?><VTKFile type="PolyData" version="0.1" byte_order="LittleEndian">
<PolyData>
<Piece NumberOfLines="3" NumberOfPoints="52">
<PointData Scalars=" PointData">
<DataArray type="Float32" Name="time" NumberOfComponents="1" format="ascii" >
0 0.179048 0.360093 0.38232 0.42426 0.454716 0.49642 0.532429 0.567825 0.60794 0.642098 0.680276 0.720989 0.752154 0.781382 0.818397 0.867784 0.907525 0.943323 0.983277 1 0 0.144985 0.266886 0.293908 0.328061 0.35669 0.38299 0.416915 0.445649 0.474236 0.500474 0.524167 0.552378 0.585836 0.618731 0.650679 0.680706 0.713428 0.747054 0.780395 0.809411 0.843246 0.874549 0.901688 0.930131 0.964017 0.996703 1 0.8 0.969678 1 
</DataArray>

</PointData>
<CellData Scalars=" CellData">
<DataArray type="Float32" Name="radius" NumberOfComponents="1" format="ascii" >
0.0582419 0.0529745 0.0618558 
</DataArray>
<DataArray type="Float32" Name="subType" NumberOfComponents="1" format="ascii" >
1 4 4 
</DataArray>
<DataArray type="Float32" Name="creationTime" NumberOfComponents="1" format="ascii" >
0 0 0.8 
</DataArray>

</CellData>
<Points>
<DataArray type="Float32" Name="Coordinates" NumberOfComponents="3" format="ascii" >
0 0 -3 -0.313298 0.624495 -3.71544 -0.731316 1.24739 -4.3767 -0.780554 1.32089 -4.46071 -0.868883 1.45196 -4.62745 -0.922884 1.55497 -4.74656 -0.993951 1.67894 -4.92351 -1.05965 1.78462 -5.07483 -1.11684 1.88837 -5.22612 -1.18072 1.99946 -5.40157 -1.24417 2.0804 -5.55486 -1.32031 2.18592 -5.71436 -1.4066 2.28677 -5.88852 -1.47873 2.34751 -6.02666 -1.54936 2.40044 -6.15599 -1.63897 2.46715 -6.31931 -1.77482 2.54565 -6.53077 -1.8674 2.6046 -6.71134 -1.93951 2.65821 -6.87863 -2.02197 2.72185 -7.06264 -2.05713 2.74764 -7.13948 0 0 -3 0.165086 0.89308 -3.41851 0.454548 1.49389 -3.91607 0.522052 1.62334 -4.02702 0.608584 1.78659 -4.16603 0.676403 1.91842 -4.29012 0.739099 2.04068 -4.40207 0.80865 2.18663 -4.56294 0.882277 2.29929 -4.70087 0.965205 2.40657 -4.83581 1.0591 2.47808 -4.96528 1.14393 2.53035 -5.08776 1.25118 2.58641 -5.23115 1.38606 2.64412 -5.39775 1.51928 2.68429 -5.56515 1.6473 2.72065 -5.72874 1.76868 2.75609 -5.88074 1.89592 2.77411 -6.05303 2.02686 2.79332 -6.22916 2.15708 2.78343 -6.40355 2.26799 2.77987 -6.55673 2.35938 2.78394 -6.75683 2.4169 2.77296 -6.95124 2.45468 2.73836 -7.11923 2.48454 2.69998 -7.29634 2.52137 2.63838 -7.50249 2.54034 2.55981 -7.69632 2.54206 2.55225 -7.716 0 0 -3 -0.652788 -0.128286 -3.7466 -0.754789 -0.162956 -3.88768 
</DataArray>
</Points>
<Lines>
<DataArray type="Int32" Name="connectivity" NumberOfComponents="1" format="ascii" >
0 1 2 3 4 5 6 7 8 9 10 11 12 13 14 15 16 17 18 19 20 21 22 23 24 25 26 27 28 29 30 31 32 33 34 35 36 37 38 39 40 41 42 43 44 45 46 47 48 49 50 51 
</DataArray>
<DataArray type="Int32" Name="offsets" NumberOfComponents="1" format="ascii" >
21 49 52 
</DataArray>

</Lines>
</Piece>
</PolyData>
</VTKFile>
