<?xml version="1.0"?><VTKFile type="PolyData" version="0.1" byte_order="LittleEndian">
<PolyData>
<Piece NumberOfLines="9" NumberOfPoints="42">
<PointData Scalars=" PointData">
<DataArray type="Float32" Name="time" NumberOfComponents="1" format="ascii" >
0 0.813119 0.85629 1.11884 1.36307 1.62781 1.8978 2.14155 2.38706 2.6608 2.94818 3.23013 3.50975 3.793 4.04009 4.30438 4.59949 4.87657 5.15497 5.40915 5.71971 5.98999 6 3.98174 5.39025 6 4.26525 5.68276 6 4.52909 5.99588 6 4.81524 6 5.10723 6 5.37096 6 5.63673 6 5.93323 6 
</DataArray>

</PointData>
<CellData Scalars=" CellData">
<DataArray type="Float32" Name="radius" NumberOfComponents="1" format="ascii" >
0.105103 0.05 0.05 0.05 0.05 0.05 0.05 0.05 0.05 
</DataArray>
<DataArray type="Float32" Name="subType" NumberOfComponents="1" format="ascii" >
1 2 2 2 2 2 2 2 2 
</DataArray>
<DataArray type="Float32" Name="creationTime" NumberOfComponents="1" format="ascii" >
0 3.98174 4.26525 4.52909 4.81524 5.10723 5.37096 5.63673 5.93323 
</DataArray>

</CellData>
<Points>
<DataArray type="Float32" Name="Coordinates" NumberOfComponents="3" format="ascii" >
0 0 -3 0.00501762 0.00161171 -3.99999 0.0055115 0.00181961 -4.05252 0.0079653 0.000559858 -4.37084 0.0104875 -0.00125716 -4.6651 0.0320691 -0.00824603 -4.98131 0.0274652 0.0227068 -5.30098 0.0229818 0.0355726 -5.58881 0.0185453 0.0479248 -5.87702 0.00687596 0.037733 -6.19629 -0.00438286 0.030773 -6.5293 -0.0138056 0.0198268 -6.85369 0.0147636 0.0258964 -7.17216 -0.00413213 0.0382085 -7.49312 -0.015518 0.0286367 -7.77157 -0.0129763 0.0202522 -8.06785 -0.0132493 0.0189597 -8.39655 -0.0190332 0.0194581 -8.70297 -0.0264056 0.0172117 -9.00872 -0.0262428 -0.00280252 -9.28542 -0.0219648 -0.0260692 -9.62122 -0.0133776 -0.0605788 -9.90992 -0.0130503 -0.0619352 -9.92057 0.0055115 0.00181961 -4.05252 -0.410614 -0.857806 -4.34897 -0.589077 -1.21701 -4.47142 0.0079653 0.000559858 -4.37084 -0.165717 -0.900278 -4.76875 -0.203808 -1.09634 -4.85551 0.0104875 -0.00125716 -4.6651 -0.400834 -0.799962 -5.10429 -0.401962 -0.802158 -5.1055 0.0320691 -0.00824603 -4.98131 -0.569327 0.213839 -5.48039 0.0274652 0.0227068 -5.30098 0.487318 0.279309 -5.60142 0.0229818 0.0355726 -5.58881 0.382393 0.21639 -5.75371 0.0185453 0.0479248 -5.87702 -0.0821254 0.250872 -5.97538 0.00687596 0.037733 -6.19629 0.0355634 0.00903642 -6.21676 
</DataArray>
</Points>
<Lines>
<DataArray type="Int32" Name="connectivity" NumberOfComponents="1" format="ascii" >
0 1 2 3 4 5 6 7 8 9 10 11 12 13 14 15 16 17 18 19 20 21 22 23 24 25 26 27 28 29 30 31 32 33 34 35 36 37 38 39 40 41 
</DataArray>
<DataArray type="Int32" Name="offsets" NumberOfComponents="1" format="ascii" >
23 26 29 32 34 36 38 40 42 
</DataArray>

</Lines>
</Piece>
</PolyData>
</VTKFile>
