<?xml version="1.0"?><VTKFile type="PolyData" version="0.1" byte_order="LittleEndian">
<PolyData>
<Piece NumberOfLines="12" NumberOfPoints="54">
<PointData Scalars=" PointData">
<DataArray type="Float32" Name="time" NumberOfComponents="1" format="ascii" >
0 0.589732 0.826467 1.06369 1.30139 1.53958 1.77827 2.01744 2.25711 2.49728 2.73794 2.97911 3 2.25711 3 2.49728 3 2.73794 3 2.97911 3 0 0.589802 0.826604 1.06391 1.30173 1.54006 1.77891 2.01827 2.25814 2.49854 2.73946 2.98091 3 2.25814 3 2.49854 3 2.73946 3 2.98091 3 1 1.58985 1.82669 2.06406 2.30195 2.54037 2.77931 3 2 2.5897 2.8264 3 
</DataArray>

</PointData>
<CellData Scalars=" CellData">
<DataArray type="Float32" Name="radius" NumberOfComponents="1" format="ascii" >
0.05 0.008 0.008 0.008 0.008 0.05 0.015 0.008 0.015 0.008 0.05 0.05 
</DataArray>
<DataArray type="Float32" Name="subType" NumberOfComponents="1" format="ascii" >
1 3 3 3 3 4 2 3 2 3 4 4 
</DataArray>
<DataArray type="Float32" Name="creationTime" NumberOfComponents="1" format="ascii" >
0 2.25711 2.49728 2.73794 2.97911 0 2.25814 2.49854 2.73946 2.98091 1 2 
</DataArray>

</CellData>
<Points>
<DataArray type="Float32" Name="Coordinates" NumberOfComponents="3" format="ascii" >
0 0 -3 0.609713 -0.741075 -3.28117 0.830235 -1.04802 -3.41215 1.03993 -1.35447 -3.56085 1.23961 -1.66151 -3.72167 1.44262 -1.96891 -3.87752 1.64633 -2.27834 -4.02836 1.86577 -2.58499 -4.16183 2.06109 -2.91143 -4.28548 2.2618 -3.21246 -4.45605 2.45123 -3.51806 -4.63133 2.66391 -3.8023 -4.81565 2.68227 -3.82693 -4.83161 0.609713 -0.741075 -3.28117 0.592409 -0.918593 -3.16582 0.830235 -1.04802 -3.41215 0.863894 -1.00195 -3.5471 1.03993 -1.35447 -3.56085 0.995968 -1.41801 -3.55572 1.23961 -1.66151 -3.72167 1.24375 -1.65955 -3.72594 0 0 -3 -0.536948 -0.841233 -3.06336 -0.764607 -1.16768 -3.10344 -1.04233 -1.45444 -3.12862 -1.33711 -1.72321 -3.15816 -1.61252 -2.0048 -3.2278 -1.87794 -2.28759 -3.32572 -2.15333 -2.56018 -3.425 -2.4336 -2.8234 -3.53527 -2.70191 -3.09557 -3.6533 -2.96673 -3.36678 -3.78103 -3.24905 -3.61485 -3.91799 -3.271 -3.63469 -3.92907 -0.536948 -0.841233 -3.06336 -0.995697 -0.991657 -2.89964 -0.764607 -1.16768 -3.10344 -0.809906 -1.2114 -2.97233 -1.04233 -1.45444 -3.12862 -1.20043 -1.452 -3.21675 -1.33711 -1.72321 -3.15816 -1.34027 -1.72261 -3.15343 0 0 -3 -0.959443 -0.242941 -3.143 -1.34122 -0.342425 -3.20894 -1.72779 -0.436503 -3.25033 -2.11058 -0.543334 -3.29574 -2.49554 -0.638858 -3.34751 -2.87999 -0.734096 -3.40342 -3.23031 -0.82491 -3.4736 0 0 -3 -0.977524 0.203393 -3.05549 -1.36619 0.295274 -3.07775 -1.65127 0.353197 -3.11146 
</DataArray>
</Points>
<Lines>
<DataArray type="Int32" Name="connectivity" NumberOfComponents="1" format="ascii" >
0 1 2 3 4 5 6 7 8 9 10 11 12 13 14 15 16 17 18 19 20 21 22 23 24 25 26 27 28 29 30 31 32 33 34 35 36 37 38 39 40 41 42 43 44 45 46 47 48 49 50 51 52 53 
</DataArray>
<DataArray type="Int32" Name="offsets" NumberOfComponents="1" format="ascii" >
13 15 17 19 21 34 36 38 40 42 50 54 
</DataArray>

</Lines>
</Piece>
</PolyData>
</VTKFile>
