<?xml version="1.0"?><VTKFile type="PolyData" version="0.1" byte_order="LittleEndian">
<PolyData>
<Piece NumberOfLines="66" NumberOfPoints="240">
<PointData Scalars=" PointData">
<DataArray type="Float32" Name="time" NumberOfComponents="1" format="ascii" >
0 0.589732 0.826467 1.06369 1.30139 1.53958 1.77827 2.01744 2.25711 2.49728 2.73794 2.97911 3.22077 3.46294 3.70562 3.94881 4.19251 4.43672 4.68144 4.92669 5.17245 5.41873 5.66554 5.91288 6 2.25711 6 2.49728 6 2.73794 6 2.97911 6 3.22077 6 3.46294 6 3.70562 6 3.94881 5.43097 6 4.19251 5.67997 6 4.43672 5.92725 6 4.68144 6 4.92669 6 5.17245 6 5.41873 6 5.66554 6 5.91288 6 0 0.589802 0.826604 1.06391 1.30173 1.54006 1.77891 2.01827 2.25814 2.49854 2.73946 2.98091 3.22288 3.46538 3.70842 3.95199 4.19609 4.44074 4.68592 4.93165 5.17792 5.42475 5.67212 5.92005 6 2.25814 3.7403 4.68536 5.6773 6 4.84731 6 5.84751 6 2.49854 6 2.73946 4.22999 5.18961 6 5.35481 6 2.98091 6 3.22288 6 3.46538 6 3.70842 6 3.95199 6 4.19609 6 4.44074 6 4.68592 6 4.93165 6 5.17792 6 5.42475 6 5.67212 6 5.92005 6 1 1.58985 1.82669 2.06406 2.30195 2.54037 2.77931 3.01879 3.2588 3.49935 3.74043 3.98206 4.22423 4.46694 4.7102 4.95401 5.19838 5.4433 5.68877 5.93481 6 3.2588 6 3.49935 6 3.74043 6 3.98206 6 4.22423 6 4.46694 5.9544 6 4.7102 6 4.95401 6 5.19838 6 5.4433 6 5.68877 6 5.93481 6 2 2.5897 2.8264 3.06358 3.30123 3.53936 3.77797 4.01706 4.25663 4.49669 4.73723 4.97826 5.21979 5.4618 5.70432 5.94733 6 4.25663 6 4.49669 6 4.73723 6 4.97826 6 5.21979 6 5.4618 6 5.70432 6 5.94733 6 3 3.58968 3.82636 4.06351 4.30113 4.53922 4.77778 5.01682 5.25633 5.49632 5.73679 5.97775 6 5.25633 6 5.49632 6 5.73679 6 5.97775 6 4 4.58987 4.82674 5.06414 5.30207 5.54054 5.77954 6 5 5.58966 5.82632 6 
</DataArray>

</PointData>
<CellData Scalars=" CellData">
<DataArray type="Float32" Name="radius" NumberOfComponents="1" format="ascii" >
0.05 0.008 0.008 0.008 0.008 0.008 0.008 0.008 0.015 0.015 0.015 0.008 0.008 0.008 0.008 0.008 0.008 0.05 0.015 0.008 0.008 0.008 0.015 0.008 0.008 0.008 0.008 0.008 0.008 0.008 0.008 0.008 0.008 0.008 0.008 0.008 0.008 0.05 0.008 0.008 0.008 0.008 0.008 0.015 0.008 0.008 0.008 0.008 0.008 0.008 0.05 0.008 0.008 0.008 0.008 0.008 0.015 0.008 0.008 0.05 0.008 0.008 0.008 0.008 0.05 0.05 
</DataArray>
<DataArray type="Float32" Name="subType" NumberOfComponents="1" format="ascii" >
1 3 3 3 3 3 3 3 2 2 2 3 3 3 3 3 3 4 2 3 3 3 2 3 3 3 3 3 3 3 3 3 3 3 3 3 3 4 3 3 3 3 3 2 3 3 3 3 3 3 4 3 3 3 3 3 2 3 3 4 3 3 3 3 4 4 
</DataArray>
<DataArray type="Float32" Name="creationTime" NumberOfComponents="1" format="ascii" >
0 2.25711 2.49728 2.73794 2.97911 3.22077 3.46294 3.70562 3.94881 4.19251 4.43672 4.68144 4.92669 5.17245 5.41873 5.66554 5.91288 0 2.25814 4.84731 5.84751 2.49854 2.73946 5.35481 2.98091 3.22288 3.46538 3.70842 3.95199 4.19609 4.44074 4.68592 4.93165 5.17792 5.42475 5.67212 5.92005 1 3.2588 3.49935 3.74043 3.98206 4.22423 4.46694 4.7102 4.95401 5.19838 5.4433 5.68877 5.93481 2 4.25663 4.49669 4.73723 4.97826 5.21979 5.4618 5.70432 5.94733 3 5.25633 5.49632 5.73679 5.97775 4 5 
</DataArray>

</CellData>
<Points>
<DataArray type="Float32" Name="Coordinates" NumberOfComponents="3" format="ascii" >
0 0 -3 0.609713 -0.741075 -3.28117 0.830235 -1.04802 -3.41215 1.03993 -1.35447 -3.56085 1.23961 -1.66151 -3.72167 1.44262 -1.96891 -3.87752 1.64633 -2.27834 -4.02836 1.86577 -2.58499 -4.16183 2.06109 -2.91143 -4.28548 2.2618 -3.21246 -4.45605 2.45123 -3.51806 -4.63133 2.66391 -3.8023 -4.81565 2.88182 -4.08687 -4.99323 3.0829 -4.37863 -5.17882 3.308 -4.67374 -5.32795 3.53457 -4.96282 -5.48639 3.76937 -5.23814 -5.65688 3.99635 -5.51476 -5.83565 4.22004 -5.79343 -6.0154 4.43614 -6.08228 -6.18821 4.62634 -6.37277 -6.38679 4.81761 -6.66504 -6.58172 4.98841 -6.93465 -6.82284 5.16184 -7.19296 -7.07424 5.22316 -7.28432 -7.16192 0.609713 -0.741075 -3.28117 0.535842 -1.48157 -2.79579 0.830235 -1.04802 -3.41215 1.0152 -0.49587 -4.05075 1.03993 -1.35447 -3.56085 1.02678 -2.15625 -3.70704 1.23961 -1.66151 -3.72167 1.77551 -1.37562 -4.18901 1.44262 -1.96891 -3.87752 1.91496 -2.20335 -3.41378 1.64633 -2.27834 -4.02836 2.17879 -2.02129 -4.2846 1.86577 -2.58499 -4.16183 1.85406 -2.60514 -4.74903 2.06109 -2.91143 -4.28548 2.55749 -3.63553 -3.80666 2.69231 -3.94947 -3.67924 2.2618 -3.21246 -4.45605 3.24143 -3.30009 -4.63673 3.43696 -3.34268 -4.67993 2.45123 -3.51806 -4.63133 3.26185 -3.22554 -5.13862 3.29917 -3.2041 -5.15662 2.66391 -3.8023 -4.81565 2.88874 -4.01834 -4.64287 2.88182 -4.08687 -4.99323 2.78548 -4.21793 -5.24418 3.0829 -4.37863 -5.17882 2.95397 -4.57758 -5.17983 3.308 -4.67374 -5.32795 3.2324 -4.71202 -5.47241 3.53457 -4.96282 -5.48639 3.61268 -4.93025 -5.53613 3.76937 -5.23814 -5.65688 3.78056 -5.22791 -5.678 0 0 -3 -0.536948 -0.841233 -3.06336 -0.764607 -1.16768 -3.10344 -1.04233 -1.45444 -3.12862 -1.33711 -1.72321 -3.15816 -1.61252 -2.0048 -3.2278 -1.87794 -2.28759 -3.32572 -2.15333 -2.56018 -3.425 -2.4336 -2.8234 -3.53527 -2.70191 -3.09557 -3.6533 -2.96673 -3.36678 -3.78103 -3.24905 -3.61485 -3.91799 -3.53688 -3.85501 -4.05756 -3.8177 -4.10376 -4.19635 -4.10489 -4.35171 -4.32302 -4.39961 -4.56551 -4.48864 -4.69213 -4.77859 -4.659 -4.98632 -4.98182 -4.83832 -5.25105 -5.2188 -5.02205 -5.50632 -5.46016 -5.21332 -5.76791 -5.70079 -5.39681 -5.99962 -5.96413 -5.58905 -6.23246 -6.22663 -5.78111 -6.47842 -6.49609 -5.94509 -6.55803 -6.58241 -5.99802 -0.536948 -0.841233 -3.06336 -1.31558 -1.27438 -2.60936 -1.79461 -1.53586 -2.36003 -2.22524 -1.89179 -2.14125 -2.36711 -1.98153 -2.05471 -1.31558 -1.27438 -2.60936 -1.51524 -1.08793 -2.44694 -1.79461 -1.53586 -2.36003 -1.78424 -1.57656 -2.34314 -0.764607 -1.16768 -3.10344 -1.00007 -1.5907 -2.42132 -1.04233 -1.45444 -3.12862 -2.01084 -1.54522 -2.89678 -2.44735 -1.22346 -3.15354 -2.89098 -1.10421 -3.29815 -2.01084 -1.54522 -2.89678 -2.02732 -1.59391 -2.71769 -1.33711 -1.72321 -3.15816 -1.73838 -1.51318 -2.5808 -1.61252 -2.0048 -3.2278 -1.30723 -2.49106 -3.61354 -1.87794 -2.28759 -3.32572 -1.79851 -2.79347 -2.91677 -2.15333 -2.56018 -3.425 -2.71172 -2.35875 -3.40017 -2.4336 -2.8234 -3.53527 -2.89166 -2.56001 -3.66808 -2.70191 -3.09557 -3.6533 -2.6643 -3.49068 -3.38433 -2.96673 -3.36678 -3.78103 -2.89854 -3.74246 -3.60494 -3.24905 -3.61485 -3.91799 -3.50158 -3.70271 -3.67374 -3.53688 -3.85501 -4.05756 -3.73681 -3.92207 -3.84715 -3.8177 -4.10376 -4.19635 -3.96505 -4.02299 -4.35416 -4.10489 -4.35171 -4.32302 -4.05183 -4.49075 -4.39588 -4.39961 -4.56551 -4.48864 -4.35599 -4.65145 -4.48892 -4.69213 -4.77859 -4.659 -4.68607 -4.80159 -4.66072 0 0 -3 -0.959443 -0.242941 -3.143 -1.34122 -0.342425 -3.20894 -1.72779 -0.436503 -3.25033 -2.11058 -0.543334 -3.29574 -2.49554 -0.638858 -3.34751 -2.87999 -0.734096 -3.40342 -3.25099 -0.874761 -3.45418 -3.62896 -1.00496 -3.46774 -4.00862 -1.1298 -3.48416 -4.38716 -1.2502 -3.53119 -4.76839 -1.36888 -3.55527 -5.14697 -1.49465 -3.58459 -5.52549 -1.62058 -3.61399 -5.90535 -1.73484 -3.66548 -6.28524 -1.8497 -3.71539 -6.67002 -1.95892 -3.71116 -7.05485 -2.06801 -3.71138 -7.45059 -2.12503 -3.69961 -7.84673 -2.18044 -3.69746 -7.95113 -2.19771 -3.69631 -0.959443 -0.242941 -3.143 -1.35518 -0.0523784 -2.62459 -1.34122 -0.342425 -3.20894 -1.77016 -0.151013 -2.78354 -1.72779 -0.436503 -3.25033 -1.78102 -1.00447 -3.40222 -2.11058 -0.543334 -3.29574 -1.91575 -0.947295 -3.57401 -2.49554 -0.638858 -3.34751 -2.52787 -0.844421 -3.77214 -2.87999 -0.734096 -3.40342 -3.56487 -0.961093 -2.71102 -3.58581 -0.963788 -2.69059 -3.25099 -0.874761 -3.45418 -3.40837 -1.01201 -3.16907 -3.62896 -1.00496 -3.46774 -3.72166 -1.07231 -3.19962 -4.00862 -1.1298 -3.48416 -4.06958 -1.1919 -3.69493 -4.38716 -1.2502 -3.53119 -4.4667 -1.19282 -3.65805 -4.76839 -1.36888 -3.55527 -4.81898 -1.30939 -3.50748 -5.14697 -1.49465 -3.58459 -5.15676 -1.48701 -3.59959 0 0 -3 -0.977524 0.203393 -3.05549 -1.36619 0.295274 -3.07775 -1.75833 0.35931 -3.12388 -2.15262 0.388131 -3.1847 -2.54622 0.414978 -3.25077 -2.93768 0.428767 -3.33182 -3.32889 0.452343 -3.41181 -3.72087 0.472777 -3.48883 -4.10801 0.495673 -3.58681 -4.49592 0.496956 -3.6844 -4.88405 0.509199 -3.78034 -5.25265 0.509794 -3.93569 -5.62067 0.505792 -4.09236 -5.98645 0.512648 -4.2541 -6.34676 0.515763 -4.42777 -6.42403 0.516177 -4.46688 -0.977524 0.203393 -3.05549 -0.977491 0.2248 -2.59755 -1.36619 0.295274 -3.07775 -1.59126 0.0470522 -3.31869 -1.75833 0.35931 -3.12388 -1.91893 0.336842 -2.81346 -2.15262 0.388131 -3.1847 -2.28262 0.637946 -3.24099 -2.54622 0.414978 -3.25077 -2.64568 0.228604 -3.17896 -2.93768 0.428767 -3.33182 -3.18969 0.700195 -3.36558 -3.32889 0.452343 -3.41181 -3.34332 0.472368 -3.49494 -3.72087 0.472777 -3.48883 -3.72742 0.483848 -3.47976 0 0 -3 0.0757078 -0.987828 -3.13589 0.103389 -1.38627 -3.15776 0.146189 -1.78285 -3.18766 0.193969 -2.17705 -3.23587 0.252428 -2.57058 -3.27721 0.32782 -2.96025 -3.327 0.416569 -3.34037 -3.41435 0.523258 -3.70882 -3.52778 0.638253 -4.06974 -3.65628 0.767921 -4.42411 -3.78896 0.847806 -4.78482 -3.94229 0.855309 -4.81804 -3.9565 0.0757078 -0.987828 -3.13589 0.254764 -1.08878 -3.08976 0.103389 -1.38627 -3.15776 -0.0170819 -1.45081 -3.20702 0.146189 -1.78285 -3.18766 0.0814643 -1.81181 -3.21949 0.193969 -2.17705 -3.23587 0.199316 -2.17915 -3.2325 0 0 -3 -0.777403 -0.61442 -3.13466 -1.09176 -0.854195 -3.19537 -1.40519 -1.09713 -3.24777 -1.71763 -1.34143 -3.29973 -2.01767 -1.60377 -3.33373 -2.30892 -1.87236 -3.38877 -2.59412 -2.10165 -3.42917 0 0 -3 -0.439707 0.895132 -3.07347 -0.668008 1.22218 -3.10374 -0.844417 1.45525 -3.12459 
</DataArray>
</Points>
<Lines>
<DataArray type="Int32" Name="connectivity" NumberOfComponents="1" format="ascii" >
0 1 2 3 4 5 6 7 8 9 10 11 12 13 14 15 16 17 18 19 20 21 22 23 24 25 26 27 28 29 30 31 32 33 34 35 36 37 38 39 40 41 42 43 44 45 46 47 48 49 50 51 52 53 54 55 56 57 58 59 60 61 62 63 64 65 66 67 68 69 70 71 72 73 74 75 76 77 78 79 80 81 82 83 84 85 86 87 88 89 90 91 92 93 94 95 96 97 98 99 100 101 102 103 104 105 106 107 108 109 110 111 112 113 114 115 116 117 118 119 120 121 122 123 124 125 126 127 128 129 130 131 132 133 134 135 136 137 138 139 140 141 142 143 144 145 146 147 148 149 150 151 152 153 154 155 156 157 158 159 160 161 162 163 164 165 166 167 168 169 170 171 172 173 174 175 176 177 178 179 180 181 182 183 184 185 186 187 188 189 190 191 192 193 194 195 196 197 198 199 200 201 202 203 204 205 206 207 208 209 210 211 212 213 214 215 216 217 218 219 220 221 222 223 224 225 226 227 228 229 230 231 232 233 234 235 236 237 238 239 
</DataArray>
<DataArray type="Int32" Name="offsets" NumberOfComponents="1" format="ascii" >
25 27 29 31 33 35 37 39 42 45 48 50 52 54 56 58 60 85 90 92 94 96 100 102 104 106 108 110 112 114 116 118 120 122 124 126 128 149 151 153 155 157 159 162 164 166 168 170 172 174 191 193 195 197 199 201 203 205 207 220 222 224 226 228 236 240 
</DataArray>

</Lines>
</Piece>
</PolyData>
</VTKFile>
