<?xml version="1.0"?><VTKFile type="PolyData" version="0.1" byte_order="LittleEndian">
<PolyData>
<Piece NumberOfLines="11" NumberOfPoints="85">
<PointData Scalars=" PointData">
<DataArray type="Float32" Name="time" NumberOfComponents="1" format="ascii" >
0 0.364058 0.629416 0.883868 1.13946 1.27414 1.39848 1.54031 1.72943 1.82668 2.01132 2.2582 2.3222 2.61594 2.70177 2.80248 2.86259 3.09769 3.09988 3.28535 3.46307 3.62942 3.93158 4.21034 4.28323 4.28547 4.5418 4.76109 4.76109 4.76957 5.02287 5.20141 5.37228 5.40749 5.6227 5.84143 6 4.12968 4.35095 4.50295 4.65876 4.81856 4.98257 5.15101 5.32412 5.50219 5.68549 5.87435 6 4.4228 4.8003 5.21182 5.66411 6 4.70409 5.08555 5.51127 5.99289 6 4.98683 5.36807 5.79298 6 5.1359 5.35691 5.50843 5.66348 5.82222 5.98483 6 5.27357 5.65777 6 5.43067 5.65259 5.80581 5.96354 6 5.64025 5.86244 6 5.74807 6 5.95284 6 
</DataArray>

</PointData>
<CellData Scalars=" CellData">
<DataArray type="Float32" Name="radius" NumberOfComponents="1" format="ascii" >
0.023 0.023 0.008 0.008 0.008 0.023 0.008 0.023 0.023 0.008 0.008 
</DataArray>
<DataArray type="Float32" Name="subType" NumberOfComponents="1" format="ascii" >
1 2 3 3 3 2 3 2 2 3 3 
</DataArray>
<DataArray type="Float32" Name="creationTime" NumberOfComponents="1" format="ascii" >
0 4.12968 4.4228 4.70409 4.98683 5.1359 5.27357 5.43067 5.64025 5.74807 5.95284 
</DataArray>

</CellData>
<Points>
<DataArray type="Float32" Name="Coordinates" NumberOfComponents="3" format="ascii" >
0 0 -3 -0.0022042 -0.0131529 -3.99991 -0.00256086 -0.0171604 -4.72277 0.00510896 -0.00313471 -5.41102 0.0114648 0.0121116 -6.09772 0.0188055 0.0263668 -6.45744 0.0224747 0.038025 -6.78852 -0.00444944 0.0418853 -7.16414 -0.0293193 0.0199107 -7.66301 -0.0332251 0.0109462 -7.91895 -0.0429934 -0.00714101 -8.403 -0.048293 0.000836583 -9.04708 -0.0447415 -0.000603715 -9.21334 -0.0121136 0.0257176 -9.97186 -0.0197397 0.0331927 -10.1925 -0.0349131 0.0415063 -10.4504 -0.0472459 0.0449541 -10.6039 -0.110506 0.0597697 -11.2002 -0.111093 0.0599091 -11.2058 -0.157697 0.0757636 -11.6738 -0.232171 0.0987479 -12.1158 -0.31646 0.104625 -12.5254 -0.466855 0.115848 -13.2651 -0.5844 0.047844 -13.9428 -0.618243 0.0323697 -14.1188 -0.619311 0.0319793 -14.1242 -0.70382 0.00458986 -14.7477 -0.769334 -0.0320334 -15.2779 -0.769335 -0.0320341 -15.2779 -0.771875 -0.033294 -15.2983 -0.833774 -0.068852 -15.9087 -0.851114 -0.105548 -16.3375 -0.876675 -0.137766 -16.7458 -0.88171 -0.144042 -16.8297 -0.930355 -0.169503 -17.3404 -0.946317 -0.196889 -17.8586 -0.957846 -0.216644 -18.2324 -0.0022042 -0.0131529 -3.99991 -0.151163 0.545466 -4.1604 -0.180976 0.906804 -4.32935 -0.215149 1.27444 -4.48324 -0.233344 1.64803 -4.62501 -0.31758 2.02262 -4.73718 -0.418083 2.39383 -4.84718 -0.52059 2.76884 -4.94133 -0.632097 3.14164 -5.03397 -0.745676 3.51402 -5.1258 -0.893354 3.86337 -5.25287 -0.979852 4.10059 -5.31265 -0.00256086 -0.0171604 -4.72277 -0.904272 0.339499 -4.96713 -1.791 0.602892 -5.34705 -2.71219 0.98427 -5.2699 -3.32332 1.28344 -5.23888 0.00510896 -0.00313471 -5.41102 -0.715503 -0.643641 -5.67648 -1.4525 -1.29925 -5.51215 -1.69599 -2.1737 -5.09255 -1.69868 -2.18546 -5.08587 0.0114648 0.0121116 -6.09772 0.373356 0.856968 -6.49174 0.556477 1.21854 -7.40592 0.583569 1.43301 -7.79751 0.0188055 0.0263668 -6.45744 -0.537144 -0.126999 -6.62296 -0.912275 -0.215433 -6.73 -1.30906 -0.241426 -6.77344 -1.69178 -0.34001 -6.83511 -2.02407 -0.557542 -6.88273 -2.05525 -0.576864 -6.886 0.0224747 0.038025 -6.78852 -0.715409 0.699682 -6.65534 -1.42802 1.04817 -6.58587 -0.00444944 0.0418853 -7.16414 -0.462507 -0.333719 -7.25956 -0.765091 -0.57422 -7.36253 -1.06786 -0.815669 -7.46269 -1.13898 -0.864978 -7.49017 -0.0293193 0.0199107 -7.66301 0.141607 0.560252 -7.86003 0.265722 0.883861 -7.9517 -0.0332251 0.0109462 -7.91895 0.52222 0.32776 -8.12568 -0.0429934 -0.00714101 -8.403 -0.146787 -0.0640965 -8.45472 
</DataArray>
</Points>
<Lines>
<DataArray type="Int32" Name="connectivity" NumberOfComponents="1" format="ascii" >
0 1 2 3 4 5 6 7 8 9 10 11 12 13 14 15 16 17 18 19 20 21 22 23 24 25 26 27 28 29 30 31 32 33 34 35 36 37 38 39 40 41 42 43 44 45 46 47 48 49 50 51 52 53 54 55 56 57 58 59 60 61 62 63 64 65 66 67 68 69 70 71 72 73 74 75 76 77 78 79 80 81 82 83 84 
</DataArray>
<DataArray type="Int32" Name="offsets" NumberOfComponents="1" format="ascii" >
37 49 54 59 63 70 73 78 81 83 85 
</DataArray>

</Lines>
</Piece>
</PolyData>
</VTKFile>
