<?xml version="1.0"?><VTKFile type="PolyData" version="0.1" byte_order="LittleEndian">
<PolyData>
<Piece NumberOfLines="19" NumberOfPoints="455">
<PointData Scalars=" PointData">
<DataArray type="Float32" Name="time" NumberOfComponents="1" format="ascii" >
0 1.24963 1.36907 1.53261 1.67869 1.79098 1.83288 1.94112 2.04098 2.1731 2.26894 2.39624 2.56324 2.6967 2.85512 2.97337 3 0 0.536448 0.604193 0.694722 0.77365 0.868563 0.914819 0.985331 1.09168 1.13362 1.25068 1.29345 1.37189 1.4188 1.54428 1.63766 1.66297 1.78667 1.90372 1.9498 2.07129 2.12737 2.19852 2.29667 2.37209 2.43396 2.50634 2.54973 2.63311 2.76451 2.85066 2.94095 3 2.93796 3 0 0.0592529 0.123347 0.153826 0.278842 0.372782 0.470892 0.572331 0.638332 0.713632 0.844715 0.952214 1.0666 1.14911 1.26808 1.41366 1.44429 1.50525 1.69365 1.81922 1.96867 2.1342 2.25672 2.32584 2.52317 2.68536 2.81136 2.94116 3 0 0.876574 0.94905 1.13776 1.30641 1.48268 1.74224 2.0793 2.19283 2.32852 2.63959 2.76526 2.96367 3 0 0.565587 0.585901 0.667564 0.778402 0.843587 0.927378 0.991964 1.09814 1.18184 1.31924 1.35751 1.402 1.43275 1.489 1.54002 1.6117 1.74807 1.8533 1.90518 1.96458 2.01473 2.08018 2.08018 2.13298 2.23831 2.28198 2.33077 2.41676 2.42138 2.47468 2.54941 2.62094 2.71103 2.77729 2.84141 2.97157 3 0 1.0334 1.12519 1.25952 1.38227 1.50618 1.57672 1.64912 1.82725 2.00694 2.13829 2.27772 2.43147 2.58064 2.58065 2.76063 2.93485 3 0 0.0795178 0.103202 0.207034 0.308784 0.418794 0.574759 0.687656 0.769402 0.845341 0.983623 1.09438 1.18819 1.27746 1.35083 1.35327 1.48544 1.57467 1.6936 1.75721 1.86687 1.96674 2.01829 2.1575 2.18231 2.31541 2.47222 2.59646 2.6955 2.83914 2.99591 3 0 0.00803403 0.0199828 0.0952312 0.169181 0.211363 0.275568 0.308503 0.367071 0.444625 0.50371 0.530615 0.626786 0.739859 0.799924 0.864935 0.953153 0.969572 1.06119 1.18495 1.26233 1.28984 1.34508 1.42595 1.54537 1.65845 1.74055 1.85065 1.9414 2.04303 2.15689 2.30085 2.4022 2.48712 2.60524 2.75337 2.80877 2.94226 3 0 0.344282 0.625365 0.784232 1.0466 1.30248 1.48608 1.59705 1.80763 2.02738 2.123 2.35593 2.65375 2.80218 3 0 0.416755 0.455924 0.573214 0.740512 0.842971 0.877913 0.933591 1.01566 1.07658 1.14602 1.24418 1.3123 1.37461 1.48101 1.58596 1.65407 1.67622 1.70261 1.80936 1.90507 1.99791 2.14354 2.23029 2.33666 2.41143 2.5253 2.59141 2.71405 2.77915 2.89667 2.91527 3 0 0.925523 1.05191 1.10902 1.20604 1.23823 1.27569 1.33313 1.42129 1.44937 1.55264 1.62521 1.7199 1.80773 1.85352 1.97994 1.97995 2.14532 2.2662 2.36471 2.49925 2.55912 2.69409 2.84101 2.9362 3 0 0.127325 0.218778 0.360931 0.426328 0.538872 0.633755 0.69422 0.836228 0.930002 1.02301 1.0624 1.14983 1.23258 1.37302 1.48746 1.52669 1.5376 1.5376 1.59703 1.70651 1.84623 1.98601 2.15661 2.29373 2.40452 2.52955 2.70114 2.8325 2.95916 3 0 0.0916776 0.179812 0.254402 0.346044 0.457124 0.525031 0.610284 0.643848 0.704513 0.828897 0.938664 1.01933 1.04624 1.136 1.25162 1.38403 1.49621 1.65737 1.77819 1.84342 1.8732 1.99878 2.15115 2.2462 2.35702 2.51703 2.66346 2.82257 2.97064 3 0 0.766121 0.916548 1.05423 1.1651 1.39959 1.50719 1.69548 1.83658 1.93694 2.05826 2.14466 2.24429 2.48135 2.59405 2.64996 2.88224 3 0 0.392925 0.511991 0.705004 0.824886 0.952313 1.0478 1.23037 1.25183 1.3894 1.4896 1.62469 1.68008 1.78961 1.86159 1.93042 1.99119 2.05805 2.1439 2.20543 2.27866 2.39527 2.48264 2.53484 2.59673 2.74461 2.80835 2.8984 2.95548 3 0 1.69581 1.87791 2.11505 2.25958 2.37538 2.44805 2.59842 2.67375 2.84091 2.97118 3 0 0.0534146 0.137345 0.238508 0.347769 0.440709 0.498518 0.54221 0.591318 0.721604 0.792493 0.868624 0.926163 1.03475 1.18725 1.26864 1.36897 1.53636 1.57351 1.63345 1.73096 1.80707 1.94133 2.03475 2.09153 2.14833 2.24275 2.33728 2.48055 2.56052 2.64634 2.71548 2.80643 2.87715 3 2.94385 3 
</DataArray>

</PointData>
<CellData Scalars=" CellData">
<DataArray type="Float32" Name="radius" NumberOfComponents="1" format="ascii" >
0.0417543 0.0486371 0.0281395 0.0546018 0.048203 0.048772 0.0423701 0.0491878 0.053613 0.0583102 0.0567703 0.0465012 0.0458901 0.0529001 0.0498883 0.0581722 0.0456427 0.0519765 0.0271799 
</DataArray>
<DataArray type="Float32" Name="subType" NumberOfComponents="1" format="ascii" >
1 4 2 4 4 4 4 4 4 4 4 4 4 4 4 4 4 4 2 
</DataArray>
<DataArray type="Float32" Name="creationTime" NumberOfComponents="1" format="ascii" >
0 0 2.93796 0 0 0 0 0 0 0 0 0 0 0 0 0 0 0 2.94385 
</DataArray>

</CellData>
<Points>
<DataArray type="Float32" Name="Coordinates" NumberOfComponents="3" format="ascii" >
0 0 -3 -1.65935 0.00208568 -5.24262 -1.81711 -0.00816038 -5.44863 -1.97141 -0.0568492 -5.76308 -2.05184 -0.127094 -6.05837 -2.13418 -0.174228 -6.279 -2.16071 -0.193795 -6.36206 -2.25574 -0.294409 -6.54595 -2.34823 -0.387272 -6.71193 -2.45661 -0.508394 -6.93813 -2.56189 -0.588714 -7.0896 -2.71462 -0.721885 -7.26206 -2.8957 -0.818991 -7.54177 -3.06144 -0.882113 -7.75297 -3.28671 -0.933757 -7.98219 -3.44685 -0.975881 -8.15823 -3.48317 -0.983708 -8.1978 0 0 -3 -0.751565 -1.18218 -4.32014 -0.83333 -1.37311 -4.43743 -0.925061 -1.62488 -4.60715 -0.990056 -1.84518 -4.75852 -1.06258 -2.10336 -4.94912 -1.09915 -2.23474 -5.03209 -1.15378 -2.43094 -5.16365 -1.25502 -2.73259 -5.33975 -1.3029 -2.84858 -5.40785 -1.46685 -3.07137 -5.6919 -1.53269 -3.14333 -5.79805 -1.67577 -3.29412 -5.95974 -1.7532 -3.38091 -6.06501 -1.9559 -3.58098 -6.37015 -2.09055 -3.74217 -6.5961 -2.13729 -3.77779 -6.65518 -2.3676 -3.94135 -6.9458 -2.60363 -4.08259 -7.20889 -2.69407 -4.13301 -7.31613 -2.87417 -4.28507 -7.62809 -2.95685 -4.35335 -7.77203 -3.06622 -4.44286 -7.94944 -3.23144 -4.58397 -8.17231 -3.35688 -4.68719 -8.34605 -3.45802 -4.77724 -8.48541 -3.60066 -4.85184 -8.64455 -3.68745 -4.88535 -8.74266 -3.83471 -4.96135 -8.94147 -4.0597 -5.09184 -9.25203 -4.19102 -5.18236 -9.46219 -4.33186 -5.2681 -9.68224 -4.382 -5.34198 -9.83737 -0.751565 -1.18218 -4.32014 -0.788769 -1.23152 -4.37558 0 0 -3 -0.0357292 -0.0322054 -3.14131 -0.0713342 -0.0680598 -3.29424 -0.0885747 -0.0879171 -3.36602 -0.144843 -0.166709 -3.66322 -0.189394 -0.218264 -3.88691 -0.238489 -0.270578 -4.11936 -0.294465 -0.316649 -4.35916 -0.338177 -0.338442 -4.51409 -0.397161 -0.347432 -4.689 -0.491994 -0.333796 -4.99472 -0.571603 -0.326114 -5.24366 -0.662058 -0.333362 -5.50534 -0.727265 -0.33845 -5.6933 -0.825295 -0.340858 -5.96171 -0.948991 -0.349507 -6.2867 -0.979875 -0.352259 -6.3527 -1.05096 -0.362113 -6.47852 -1.25032 -0.34769 -6.87662 -1.39037 -0.331391 -7.13579 -1.59786 -0.347922 -7.41613 -1.76597 -0.434329 -7.75076 -1.85599 -0.568101 -7.98307 -1.91346 -0.639858 -8.1127 -1.98952 -0.859758 -8.49938 -2.08437 -1.02543 -8.81427 -2.14403 -1.14656 -9.06458 -2.20276 -1.255 -9.3287 -2.22809 -1.32228 -9.43895 0 0 -3 0.199606 -0.794928 -3.898 0.215775 -0.861382 -3.97026 0.32049 -0.994514 -4.1653 0.393006 -1.13625 -4.33124 0.484783 -1.27412 -4.50418 0.62865 -1.47295 -4.75506 0.776873 -1.71297 -5.10924 0.816025 -1.78961 -5.23425 0.84276 -1.89607 -5.37804 0.944477 -2.1335 -5.69994 0.982457 -2.22384 -5.83386 1.02784 -2.38237 -6.03627 1.03568 -2.41124 -6.0734 0 0 -3 0.990742 -1.10422 -4.50634 1.02343 -1.13674 -4.56497 1.18866 -1.27595 -4.7716 1.3639 -1.47331 -5.07668 1.50128 -1.5697 -5.24257 1.70716 -1.71843 -5.40591 1.85659 -1.81747 -5.55271 2.04382 -2.02876 -5.80553 2.18075 -2.20307 -6.00322 2.37775 -2.53703 -6.29351 2.42951 -2.63168 -6.37331 2.46893 -2.74106 -6.47668 2.49001 -2.819 -6.54738 2.51954 -2.96637 -6.67283 2.52879 -3.09979 -6.78877 2.53663 -3.27641 -6.96228 2.63249 -3.66446 -7.20639 2.70727 -3.95499 -7.40314 2.74435 -4.10473 -7.48798 2.78069 -4.26963 -7.59681 2.80347 -4.41226 -7.68458 2.87142 -4.60027 -7.77601 2.87142 -4.60028 -7.77601 2.92927 -4.74828 -7.85336 3.04058 -5.06415 -7.95783 3.08576 -5.19497 -8.00039 3.14012 -5.33625 -8.05614 3.22476 -5.55945 -8.20843 3.22913 -5.57199 -8.21577 3.25856 -5.71295 -8.31475 3.29501 -5.92043 -8.43795 3.34764 -6.10833 -8.56443 3.40103 -6.33206 -8.74347 3.43822 -6.48866 -8.88349 3.4517 -6.63619 -9.02613 3.512 -6.96652 -9.26998 3.52599 -7.03715 -9.32435 0 0 -3 0.343208 0.19049 -4.95031 0.376693 0.202979 -5.12018 0.443513 0.215425 -5.36404 0.516926 0.226975 -5.58209 0.617748 0.248457 -5.78956 0.666433 0.248726 -5.91168 0.714447 0.239562 -6.03713 0.85165 0.225113 -6.33685 1.02864 0.18673 -6.61388 1.15331 0.16778 -6.81897 1.2693 0.139861 -7.04373 1.43564 0.136033 -7.26809 1.62809 0.176666 -7.45261 1.6281 0.176668 -7.45262 1.80444 0.217638 -7.72098 1.99508 0.258381 -7.96409 2.06379 0.275431 -8.0561 0 0 -3 -0.069803 0.123168 -3.17328 -0.0856512 0.158086 -3.2276 -0.155144 0.311471 -3.46451 -0.223422 0.458452 -3.69715 -0.298548 0.624269 -3.94196 -0.350993 0.840231 -4.31001 -0.403031 1.0099 -4.56338 -0.459941 1.12398 -4.74636 -0.497647 1.23146 -4.91852 -0.55116 1.51477 -5.15689 -0.591183 1.73737 -5.35089 -0.620992 1.92949 -5.50995 -0.658732 2.10425 -5.66715 -0.689128 2.2473 -5.79607 -0.690191 2.25204 -5.80032 -0.745449 2.5066 -6.03339 -0.814809 2.67813 -6.17796 -0.903953 2.87551 -6.40183 -0.941261 2.97651 -6.52807 -0.993996 3.14021 -6.75524 -1.04882 3.26433 -6.97498 -1.07156 3.34489 -7.07815 -1.06315 3.59149 -7.33649 -1.06058 3.63665 -7.38093 -0.996716 3.89355 -7.59287 -0.944915 4.18715 -7.85487 -0.871322 4.42054 -8.04918 -0.830499 4.58732 -8.22792 -0.797022 4.76543 -8.53607 -0.748851 4.95102 -8.87287 -0.747866 4.95618 -8.88148 0 0 -3 0.00295072 -0.0224767 -3.00959 0.00783369 -0.0552216 -3.02517 0.0383149 -0.259689 -3.12584 0.0538318 -0.461365 -3.22476 0.0626634 -0.575809 -3.28157 0.0864268 -0.748512 -3.3677 0.0975799 -0.836141 -3.41351 0.11692 -0.98633 -3.50432 0.144099 -1.18443 -3.62401 0.180328 -1.32681 -3.72265 0.206798 -1.39005 -3.76468 0.333521 -1.60997 -3.89775 0.460445 -1.89567 -4.01885 0.527937 -2.04678 -4.08258 0.61438 -2.20083 -4.15621 0.743747 -2.39871 -4.26134 0.765928 -2.43708 -4.27985 0.888886 -2.63229 -4.41489 1.03806 -2.91919 -4.57144 1.13367 -3.08842 -4.68182 1.16495 -3.14956 -4.72139 1.2454 -3.27572 -4.77477 1.37971 -3.43985 -4.86829 1.59003 -3.69929 -4.93542 1.78418 -3.94541 -5.00333 1.95547 -4.09867 -5.03324 2.13176 -4.34871 -5.07954 2.29253 -4.53981 -5.12467 2.50382 -4.71916 -5.18155 2.67343 -4.95024 -5.31287 2.91682 -5.20123 -5.49929 3.1027 -5.34575 -5.6457 3.24639 -5.45515 -5.79023 3.43871 -5.60867 -5.99503 3.69865 -5.69367 -6.28544 3.79449 -5.72527 -6.39433 4.02461 -5.79986 -6.65566 4.12591 -5.83399 -6.76558 0 0 -3 0.0189383 -0.119006 -3.40602 -0.0125706 -0.228014 -3.73018 -0.0199459 -0.272336 -3.91808 0.0111128 -0.347878 -4.22501 0.0453496 -0.419288 -4.52268 0.0378568 -0.456971 -4.73926 0.031865 -0.479299 -4.86975 0.0270166 -0.520835 -5.11685 0.0249877 -0.564899 -5.37339 0.0281685 -0.590333 -5.48333 0.0320627 -0.655031 -5.74955 0.0112941 -0.62645 -6.09609 -0.001444 -0.615471 -6.26804 -0.026728 -0.6186 -6.49602 0 0 -3 0.0204609 0.364057 -4.18955 0.0212424 0.394155 -4.30116 0.0235868 0.507248 -4.62691 0.1706 0.596366 -5.084 0.208248 0.658527 -5.37204 0.220225 0.68145 -5.46964 0.238341 0.704875 -5.6274 0.252532 0.740699 -5.86002 0.25839 0.765115 -6.03259 0.276286 0.787977 -6.2286 0.297555 0.822174 -6.50459 0.271012 0.827208 -6.69545 0.249612 0.834687 -6.86971 0.199709 0.867391 -7.16254 0.116017 0.926063 -7.43733 0.0650686 0.958661 -7.61689 0.0476248 0.968908 -7.67494 0.0326363 0.981071 -7.74549 -0.0672234 1.0256 -8.0194 -0.168501 1.07302 -8.25755 -0.248311 1.08181 -8.49851 -0.365209 1.09469 -8.87673 -0.388581 1.09852 -9.11008 -0.391973 1.10614 -9.39618 -0.422348 1.07965 -9.59235 -0.406216 1.04064 -9.89297 -0.43504 1.00996 -10.0633 -0.491023 0.954469 -10.3775 -0.531619 0.9185 -10.5399 -0.600078 0.858353 -10.8336 -0.61204 0.844664 -10.8786 -0.665143 0.782416 -11.0833 0 0 -3 -1.92954 0.185506 -4.78041 -2.18841 0.223304 -5.01341 -2.30492 0.234364 -5.11896 -2.50559 0.251566 -5.29386 -2.56679 0.26072 -5.35673 -2.63895 0.268901 -5.42906 -2.72736 0.281468 -5.55794 -2.86274 0.299926 -5.75505 -2.90223 0.301159 -5.82018 -3.09825 0.276319 -6.01745 -3.23603 0.259068 -6.15491 -3.41319 0.211771 -6.33057 -3.57826 0.179746 -6.49398 -3.66833 0.170397 -6.5755 -3.89845 0.165616 -6.81893 -3.89846 0.165615 -6.81894 -4.16813 0.120025 -7.15739 -4.29523 0.0859248 -7.44453 -4.39935 0.0618638 -7.6772 -4.53887 0.0464099 -7.99533 -4.60011 0.0404709 -8.13653 -4.73596 0.0267144 -8.45397 -4.899 -0.0331493 -8.78472 -4.98676 -0.0164086 -9.00816 -5.03212 -0.00651654 -9.16196 0 0 -3 0.221922 0.221268 -3.09237 0.357094 0.38775 -3.18487 0.538636 0.625642 -3.38711 0.61854 0.72691 -3.49064 0.753121 0.914042 -3.65578 0.879879 1.05359 -3.80101 0.949004 1.15146 -3.89312 1.08729 1.31466 -4.17443 1.12615 1.40501 -4.38473 1.09886 1.46332 -4.60484 1.09158 1.4864 -4.6986 1.08982 1.54727 -4.90415 1.05899 1.6425 -5.07974 1.02726 1.78991 -5.38603 1.02256 1.90472 -5.63768 1.02391 1.95059 -5.7203 1.02429 1.9631 -5.74337 1.02429 1.96311 -5.74338 1.02464 2.02747 -5.87086 1.01713 2.1385 -6.10817 1.00674 2.27908 -6.40951 1.00939 2.3984 -6.71803 1.04665 2.5277 -7.09579 1.08723 2.56692 -7.41093 1.12763 2.57649 -7.66485 1.1725 2.59233 -7.94976 1.27167 2.62799 -8.32927 1.30549 2.67556 -8.62307 1.3562 2.70321 -8.90441 1.36944 2.71571 -8.99485 0 0 -3 0.0569167 0.105553 -3.1893 0.118611 0.20662 -3.36825 0.181689 0.284992 -3.51867 0.281235 0.367225 -3.69869 0.398423 0.449465 -3.92446 0.47693 0.480157 -4.06373 0.580999 0.534546 -4.23018 0.619842 0.554157 -4.2973 0.693722 0.580594 -4.41838 0.840033 0.635388 -4.66818 0.964167 0.69652 -4.88675 1.04843 0.748892 -5.048 1.07936 0.770481 -5.09846 1.16986 0.819533 -5.2811 1.26485 0.876418 -5.52606 1.37902 0.943281 -5.80223 1.45417 1.00268 -6.04184 1.52045 1.11576 -6.38627 1.56948 1.20436 -6.6415 1.59685 1.26683 -6.77245 1.60926 1.29621 -6.83169 1.69978 1.45134 -7.04999 1.77087 1.62841 -7.33255 1.78772 1.72573 -7.51964 1.75484 1.82166 -7.74326 1.66472 1.95044 -8.0587 1.61676 1.99933 -8.37169 1.46105 2.11528 -8.65789 1.33888 2.19647 -8.94194 1.31671 2.21211 -8.99895 0 0 -3 1.49563 0.5112 -3.33863 1.7981 0.531467 -3.41228 2.07834 0.555501 -3.45145 2.30015 0.58675 -3.49186 2.77283 0.620647 -3.55676 2.98508 0.576223 -3.57973 3.35313 0.485908 -3.59949 3.62894 0.426023 -3.61456 3.80955 0.357599 -3.66686 3.9952 0.228388 -3.74977 4.1249 0.138378 -3.81523 4.27177 0.0599404 -3.91934 4.60844 -0.14334 -4.16614 4.76925 -0.244019 -4.27609 4.84501 -0.298319 -4.33149 5.12421 -0.573216 -4.54893 5.28301 -0.678034 -4.67032 0 0 -3 0.00456855 0.0405838 -3.98258 -0.00131957 0.0426885 -4.2773 -0.0277599 -0.0398686 -4.74403 -0.0383194 -0.0600573 -5.03604 -0.0434589 -0.0840604 -5.34477 -0.0589661 -0.0955088 -5.57494 -0.128805 -0.00532034 -5.9989 -0.137265 0.00522508 -6.04849 -0.17855 0.0361374 -6.37271 -0.125566 0.0255111 -6.60438 -0.0483663 0.0148998 -6.91388 -0.0135014 0.00384557 -7.03898 0.0534063 0.014595 -7.28671 0.101466 0.0475872 -7.44441 0.131044 0.0685154 -7.60057 0.156699 0.0906421 -7.73756 0.192708 0.111527 -7.88673 0.218677 0.119248 -8.08308 0.25411 0.125904 -8.22001 0.300478 0.127898 -8.38153 0.370317 0.0941205 -8.63654 0.418371 0.0759589 -8.82864 0.453777 0.0644853 -8.94109 0.503942 0.0520305 -9.0713 0.658589 0.0767174 -9.36547 0.713834 0.0900551 -9.4967 0.778556 0.113067 -9.68601 0.82883 0.114635 -9.80288 0.868156 0.109764 -9.89364 0 0 -3 0.136582 0.439706 -5.42775 0.13748 0.486707 -5.68228 0.0991236 0.524092 -6.0132 0.0853953 0.508401 -6.21541 0.109305 0.508818 -6.37595 0.133979 0.515158 -6.47432 0.181549 0.537278 -6.67729 0.213338 0.543769 -6.77684 0.286225 0.563536 -6.99579 0.340939 0.580459 -7.16621 0.353739 0.585049 -7.2035 0 0 -3 -0.123795 -0.0853278 -3.0678 -0.299384 -0.258611 -3.14388 -0.518297 -0.462093 -3.22446 -0.754959 -0.647028 -3.36677 -0.959059 -0.801507 -3.48297 -1.07285 -0.916529 -3.54728 -1.15335 -1.01189 -3.58784 -1.23507 -1.12536 -3.63347 -1.46197 -1.40816 -3.77246 -1.58429 -1.5623 -3.84605 -1.71886 -1.72545 -3.92191 -1.81987 -1.84782 -3.98061 -2.00029 -2.05728 -4.13732 -2.25117 -2.36042 -4.3409 -2.40143 -2.52021 -4.42495 -2.57749 -2.7074 -4.55519 -2.86832 -3.02025 -4.76756 -2.93941 -3.0859 -4.80895 -3.06415 -3.1946 -4.8452 -3.26147 -3.37224 -4.9142 -3.41783 -3.50562 -4.97054 -3.68133 -3.68864 -5.16204 -3.86354 -3.81513 -5.29445 -3.96688 -3.87531 -5.39518 -4.05715 -3.92969 -5.51009 -4.20727 -4.01558 -5.70165 -4.39031 -4.09269 -5.86473 -4.66222 -4.21441 -6.11163 -4.81076 -4.28996 -6.24686 -4.97217 -4.36038 -6.39365 -5.10332 -4.40556 -6.51435 -5.25617 -4.45779 -6.69293 -5.35918 -4.51419 -6.83769 -5.47067 -4.65281 -7.10613 -0.123795 -0.0853278 -3.0678 -0.151668 -0.103385 -3.0849 
</DataArray>
</Points>
<Lines>
<DataArray type="Int32" Name="connectivity" NumberOfComponents="1" format="ascii" >
0 1 2 3 4 5 6 7 8 9 10 11 12 13 14 15 16 17 18 19 20 21 22 23 24 25 26 27 28 29 30 31 32 33 34 35 36 37 38 39 40 41 42 43 44 45 46 47 48 49 50 51 52 53 54 55 56 57 58 59 60 61 62 63 64 65 66 67 68 69 70 71 72 73 74 75 76 77 78 79 80 81 82 83 84 85 86 87 88 89 90 91 92 93 94 95 96 97 98 99 100 101 102 103 104 105 106 107 108 109 110 111 112 113 114 115 116 117 118 119 120 121 122 123 124 125 126 127 128 129 130 131 132 133 134 135 136 137 138 139 140 141 142 143 144 145 146 147 148 149 150 151 152 153 154 155 156 157 158 159 160 161 162 163 164 165 166 167 168 169 170 171 172 173 174 175 176 177 178 179 180 181 182 183 184 185 186 187 188 189 190 191 192 193 194 195 196 197 198 199 200 201 202 203 204 205 206 207 208 209 210 211 212 213 214 215 216 217 218 219 220 221 222 223 224 225 226 227 228 229 230 231 232 233 234 235 236 237 238 239 240 241 242 243 244 245 246 247 248 249 250 251 252 253 254 255 256 257 258 259 260 261 262 263 264 265 266 267 268 269 270 271 272 273 274 275 276 277 278 279 280 281 282 283 284 285 286 287 288 289 290 291 292 293 294 295 296 297 298 299 300 301 302 303 304 305 306 307 308 309 310 311 312 313 314 315 316 317 318 319 320 321 322 323 324 325 326 327 328 329 330 331 332 333 334 335 336 337 338 339 340 341 342 343 344 345 346 347 348 349 350 351 352 353 354 355 356 357 358 359 360 361 362 363 364 365 366 367 368 369 370 371 372 373 374 375 376 377 378 379 380 381 382 383 384 385 386 387 388 389 390 391 392 393 394 395 396 397 398 399 400 401 402 403 404 405 406 407 408 409 410 411 412 413 414 415 416 417 418 419 420 421 422 423 424 425 426 427 428 429 430 431 432 433 434 435 436 437 438 439 440 441 442 443 444 445 446 447 448 449 450 451 452 453 454 
</DataArray>
<DataArray type="Int32" Name="offsets" NumberOfComponents="1" format="ascii" >
17 50 52 81 95 133 151 183 222 237 270 296 327 358 376 406 418 453 455 
</DataArray>

</Lines>
</Piece>
</PolyData>
</VTKFile>
