<?xml version="1.0"?><VTKFile type="PolyData" version="0.1" byte_order="LittleEndian">
<PolyData>
<Piece NumberOfLines="86" NumberOfPoints="785">
<PointData Scalars=" PointData">
<DataArray type="Float32" Name="time" NumberOfComponents="1" format="ascii" >
0 0.49969 0.509567 0.723488 0.970333 1.23251 1.42783 1.59434 1.8416 2.02821 2.24336 2.43418 2.73068 2.95179 3.16091 3.43795 3.63454 3.8665 4.19037 4.49767 4.81755 5.0573 5.31845 5.56811 5.95463 6.23514 6.51531 6.82165 7.10401 7.36123 7.57579 7.89233 8.23234 8.54488 8.82084 9.13618 9.49973 9.8711 10.1268 10.6181 10.9785 11.3174 11.6671 12.06 12.4727 12.83 13.2537 13.6272 14.0624 14.5355 14.8172 15.2671 15.7096 16.1147 16.4887 16.9455 17.3807 17.7891 18.2778 18.7218 19.2048 19.689 20.1244 20.6396 21 2.99582 4.42889 5.92895 7.50256 7.67327 8.34211 9.09786 9.76374 10.4908 11.1627 11.976 12.7995 13.6166 14.4557 15.3264 16.2248 17.1938 18.1519 19.1825 20.2664 21 17.947 19.8667 21 18.8719 20.777 21 19.9259 21 20.8629 21 3.23165 4.62685 6.08714 7.48519 8.30688 8.95666 9.6609 10.4231 11.104 11.8807 12.7472 13.5866 14.3115 15.261 16.082 17.018 17.9472 18.8379 19.8733 21 17.2643 19.0669 21 18.3928 20.3715 21 19.2931 21 20.2773 21 3.50404 4.8642 6.28848 7.16826 7.90154 8.61537 9.28482 9.97691 10.6861 11.5653 12.2621 12.9124 13.7211 14.5729 15.3936 16.1579 17.0735 18.012 18.9118 19.7959 20.8597 21 17.0035 18.8797 20.9772 21 18.0237 19.8386 21 19.0263 20.9535 21 19.9754 21 20.9661 21 3.79364 5.24862 6.77072 8.36642 8.71284 9.55636 10.3074 11.0417 11.8499 12.861 13.6821 14.5664 15.3452 16.1163 16.9006 17.8709 18.9443 20.0057 21 18.9473 20.7568 21 20.1029 21 4.00959 5.35063 6.75379 7.73166 8.47071 9.07176 9.72321 10.4283 10.9564 11.7613 12.5136 13.4274 14.2426 15.0392 15.9327 16.6625 17.6785 18.678 19.7308 20.6871 21 16.9674 18.8934 21 17.9742 19.9619 21 18.7998 20.6061 21 19.7015 21 20.6862 21 4.19383 5.65141 7.17621 8.77473 9.05454 9.71451 10.4527 11.263 12.0294 12.8698 13.8477 14.6454 15.4126 16.3592 17.1678 17.9198 18.8837 20.0044 20.9756 21 19.2147 21 20.1153 21 4.46764 5.82905 7.2529 8.67942 9.40956 10.0971 10.7881 11.4667 12.2906 13.0493 13.8448 14.6487 15.495 16.4079 17.256 18.0245 19.0221 19.9843 20.9333 21 18.6898 20.4813 21 19.7023 21 20.6643 21 4.6745 6.10608 7.60339 9.17274 9.4079 10.1738 10.9121 11.6847 12.4268 13.4416 14.0758 14.851 15.6858 16.6448 17.6319 18.6104 19.582 20.4311 21 19.5871 21 20.6381 21 4.91318 6.29591 7.74129 9.25528 9.38228 9.99409 10.7825 11.6371 12.473 13.1907 13.8928 14.6538 15.5636 16.3615 17.2648 18.3086 19.2475 20.342 21 19.3407 21 20.1797 21 5.12505 6.57882 8.10174 9.51886 10.1792 10.9333 11.6055 12.3599 13.0794 13.9489 14.6896 15.4632 16.4202 17.0828 17.9976 19.0835 19.9537 20.8956 21 19.0983 20.955 21 19.9922 21 5.45462 6.88087 8.37429 9.64521 10.4351 11.0912 11.7895 12.5306 13.2543 13.9706 14.6782 15.5314 16.4396 17.1645 18.2266 19.0262 20.2102 21 19.3804 21 20.459 21 5.70067 7.12788 8.61883 10.1795 10.4592 11.1411 11.8882 12.6111 13.3993 14.3015 15.146 16.0367 16.9346 17.8114 18.7186 19.5803 20.5025 21 5.9336 7.37546 8.88259 10.4612 11.438 12.2628 13.0165 13.8228 14.6437 15.305 16.2401 17.0187 17.8757 18.7907 19.6249 20.6179 21 6.24251 7.7928 9.41599 10.5133 11.3557 12.1562 12.9241 13.8835 14.685 15.5414 16.4939 17.3696 18.2991 19.189 20.0523 21 6.46196 7.96913 9.54572 10.7817 11.3782 12.2141 13.002 13.7665 14.6109 15.5102 16.3406 17.2508 18.2509 19.1902 20.1562 21 6.72113 8.10725 9.55776 11.0789 11.3078 12.1186 12.7679 13.448 14.1462 14.8255 15.6449 16.4012 17.2057 18.0009 18.9875 19.9262 20.8242 21 7.08348 8.47713 9.93569 11.4582 12.0913 12.859 13.5265 14.2949 15.0446 15.7525 16.5075 17.1857 17.92 18.8343 19.651 20.466 21 7.42778 8.82626 10.2892 11.7623 12.503 13.1684 13.8853 14.5171 15.2441 16.1943 16.9993 17.8547 18.826 19.77 20.6762 21 7.78672 9.18769 10.6522 12.1863 12.675 13.3171 14.2213 14.9418 15.7561 16.5376 17.2704 18.2619 18.9638 19.9501 20.8157 21 8.0561 9.42651 10.8598 12.3619 12.9111 13.6734 14.3388 15.2132 15.9222 16.672 17.4841 18.2061 18.9906 19.845 20.8209 21 8.34988 9.76703 11.2478 12.798 13.212 13.9841 14.848 15.6776 16.6499 17.3686 18.1245 18.9631 19.8668 20.7653 21 8.6311 10.0334 11.4989 13.0334 13.6029 14.3019 15.0912 15.7104 16.5288 17.2551 18.034 19.0424 19.8404 20.8652 21 9.06715 10.4521 11.9011 13.1826 13.9725 14.5981 15.3346 16.022 16.8222 17.6088 18.2908 19.0807 19.9012 20.6961 21 9.38414 10.7148 12.1079 13.0665 13.7447 14.4363 15.071 15.628 16.4008 17.1048 17.8326 18.7327 19.5421 20.2831 21 9.7012 11.1112 12.5867 14.1342 14.3189 15.0647 15.7495 16.4229 17.1732 17.9478 18.6282 19.4944 20.3522 21 10.0484 11.4786 12.974 14.541 15.1856 15.8156 16.6154 17.4392 18.1763 19.1307 19.9018 20.6639 21 10.3689 11.832 13.3604 14.7985 15.4852 16.2567 17.0198 17.8593 18.6708 19.5055 20.2533 21 10.6613 12.0496 13.501 15.0217 15.127 15.8894 16.6302 17.4818 18.3255 19.0769 19.8575 20.705 21 10.9055 12.357 13.8753 15.4669 15.8446 16.5091 17.2585 17.9811 18.7713 19.4228 20.3229 21 11.2664 12.6898 14.1783 15.738 16.208 16.881 17.5444 18.2871 19.0733 19.8715 20.641 21 11.6546 13.0836 14.5746 16.1332 16.6129 17.4451 18.2178 19.0698 19.735 20.6013 21 12.0122 13.4359 14.9211 16.4735 17.5136 18.2335 18.9422 19.6826 20.4398 21 12.3284 13.7091 15.1543 16.6705 16.7688 17.3974 18.0774 18.8217 19.558 20.2341 21 12.6904 13.9934 15.3579 16.7811 17.4205 18.0602 18.7926 19.4776 20.1456 20.8732 21 13.1085 14.4912 15.9352 17.4463 17.8708 18.595 19.3594 19.9978 20.7423 21 13.5365 14.9991 16.5287 17.7236 18.3177 19.0746 19.7952 20.5607 21 13.8318 15.2211 16.6738 18.196 18.3806 19.0377 19.7649 20.4617 21 14.4004 15.8385 17.3404 18.9121 19.142 19.9282 20.688 21 14.8187 16.204 17.6521 19.0169 19.7062 20.3655 21 15.2128 16.6907 18.2348 19.5067 20.2827 21 15.6205 17.0365 18.5173 19.9342 20.648 21 16.0796 17.523 19.0342 19.7513 20.527 21 16.5631 17.8904 19.2804 20.7249 21 16.9828 18.3871 19.8556 21 17.4818 18.8551 20.2926 21 17.923 19.3727 20.8876 21 18.4384 19.9148 21 19.0006 20.4487 21 19.3365 20.7285 21 19.874 21 20.4047 21 20.8921 21 
</DataArray>

</PointData>
<CellData Scalars=" CellData">
<DataArray type="Float32" Name="radius" NumberOfComponents="1" format="ascii" >
0.073597 0.0483104 0.0541652 0.0447072 0.0512769 0.0436474 0.051644 0.0524246 0.0517066 0.0582707 0.0512451 0.0517459 0.0499248 0.0567982 0.0484799 0.0506012 0.0476767 0.0587091 0.0473767 0.051659 0.0456802 0.0439013 0.0554178 0.044974 0.0450916 0.045561 0.0510339 0.0540553 0.0562269 0.0549657 0.0606312 0.0447085 0.042515 0.0509917 0.0507025 0.0452348 0.0439557 0.054265 0.047598 0.0544356 0.0533087 0.0514469 0.0452806 0.0463677 0.0477808 0.0490116 0.0563493 0.052833 0.0434974 0.0482047 0.0525513 0.040465 0.0483956 0.053205 0.0496512 0.0419634 0.0455811 0.0489473 0.0492234 0.0479621 0.0500378 0.0518485 0.0513471 0.0527158 0.0501538 0.0471363 0.0566594 0.0472977 0.0555617 0.0490884 0.0487982 0.0443683 0.0535753 0.0521342 0.0487821 0.0621787 0.0585595 0.0434398 0.0545056 0.0469574 0.0507131 0.0486966 0.0445567 0.033638 0.0509528 0.0483893 
</DataArray>
<DataArray type="Float32" Name="subType" NumberOfComponents="1" format="ascii" >
1 2 3 3 3 3 2 3 3 3 3 2 3 3 3 3 3 2 3 3 2 3 3 3 3 3 2 3 3 2 3 3 3 2 3 3 2 3 3 2 3 3 2 3 3 2 2 2 2 2 2 2 2 2 2 2 2 2 2 2 2 2 2 2 2 2 2 2 2 2 2 2 2 2 2 2 2 2 2 2 2 2 2 2 2 2 
</DataArray>
<DataArray type="Float32" Name="creationTime" NumberOfComponents="1" format="ascii" >
0 2.99582 17.947 18.8719 19.9259 20.8629 3.23165 17.2643 18.3928 19.2931 20.2773 3.50404 17.0035 18.0237 19.0263 19.9754 20.9661 3.79364 18.9473 20.1029 4.00959 16.9674 17.9742 18.7998 19.7015 20.6862 4.19383 19.2147 20.1153 4.46764 18.6898 19.7023 20.6643 4.6745 19.5871 20.6381 4.91318 19.3407 20.1797 5.12505 19.0983 19.9922 5.45462 19.3804 20.459 5.70067 5.9336 6.24251 6.46196 6.72113 7.08348 7.42778 7.78672 8.0561 8.34988 8.6311 9.06715 9.38414 9.7012 10.0484 10.3689 10.6613 10.9055 11.2664 11.6546 12.0122 12.3284 12.6904 13.1085 13.5365 13.8318 14.4004 14.8187 15.2128 15.6205 16.0796 16.5631 16.9828 17.4818 17.923 18.4384 19.0006 19.3365 19.874 20.4047 20.8921 
</DataArray>

</CellData>
<Points>
<DataArray type="Float32" Name="Coordinates" NumberOfComponents="3" format="ascii" >
0 0 -3 -0.0351313 0.0742711 -3.99662 -0.0358811 0.0767392 -4.01602 -0.135058 0.254566 -4.38567 -0.248002 0.452671 -4.811 -0.294358 0.576416 -5.301 -0.326549 0.629895 -5.6705 -0.40484 0.713642 -5.96626 -0.596925 0.768216 -6.38868 -0.78222 0.748572 -6.68456 -0.934675 0.692851 -7.05014 -1.0613 0.636704 -7.37368 -1.30647 0.514112 -7.84091 -1.46206 0.41981 -8.19703 -1.62771 0.273563 -8.50007 -1.80439 0.0978957 -8.92451 -1.94964 0.00470016 -9.22445 -2.11633 -0.0970646 -9.5791 -2.09966 -0.197477 -10.129 -2.19395 -0.291886 -10.6358 -2.21732 -0.421305 -11.1584 -2.25729 -0.533471 -11.5398 -2.30092 -0.655811 -11.9507 -2.34815 -0.771044 -12.3392 -2.37885 -0.948408 -12.9363 -2.43305 -1.02202 -13.3737 -2.45476 -1.08515 -13.81 -2.46837 -1.10302 -14.2866 -2.45535 -1.1283 -14.7204 -2.49293 -1.10894 -15.11 -2.51899 -1.0034 -15.4151 -2.43658 -0.847504 -15.8539 -2.30844 -0.739755 -16.3267 -2.22649 -0.688245 -16.7714 -2.16198 -0.656022 -17.1621 -2.01753 -0.68032 -17.5863 -1.84061 -0.736407 -18.062 -1.70467 -0.716795 -18.5574 -1.579 -0.702193 -18.8834 -1.31738 -0.734084 -19.4908 -1.10377 -0.788172 -19.9147 -0.919732 -0.828645 -20.3157 -0.72447 -0.811043 -20.7221 -0.620945 -0.760079 -21.2082 -0.55139 -0.716807 -21.7182 -0.486364 -0.69357 -22.1533 -0.532302 -0.665139 -22.6649 -0.517707 -0.678189 -23.1111 -0.49041 -0.552414 -23.6068 -0.390476 -0.441851 -24.133 -0.329612 -0.376014 -24.4412 -0.221742 -0.285984 -24.9265 -0.11688 -0.198125 -25.3953 -0.0205837 -0.119191 -25.8171 0.0633653 -0.0465729 -26.2013 0.197212 0.0847531 -26.6437 0.326541 0.213942 -27.0547 0.424344 0.342183 -27.4375 0.553246 0.47436 -27.8896 0.758012 0.546792 -28.2673 0.970483 0.723464 -28.6418 1.20582 0.823123 -29.0217 1.41302 0.912998 -29.3571 1.60016 1.14206 -29.722 1.69417 1.31628 -29.9772 -0.0358811 0.0767392 -4.01602 -0.935197 -0.108714 -4.41205 -1.67494 -0.120422 -5.08484 -2.5057 0.116579 -5.5885 -2.58859 0.152788 -5.6429 -2.89163 0.316634 -5.86194 -3.2362 0.522727 -6.06771 -3.52981 0.706922 -6.24386 -3.75825 0.822694 -6.57097 -3.97167 0.859142 -6.87788 -4.31654 0.839338 -7.15721 -4.62498 0.79835 -7.46626 -4.90979 0.772625 -7.77944 -5.18655 0.749572 -8.10044 -5.54131 0.802149 -8.33564 -5.8993 0.852056 -8.56944 -6.269 0.947471 -8.80949 -6.63152 1.03179 -9.03026 -6.98981 1.1613 -9.27212 -7.359 1.26271 -9.52579 -7.59196 1.3267 -9.70724 -2.58859 0.152788 -5.6429 -2.80052 -0.239119 -6.53817 -2.80479 -0.363354 -7.06653 -2.89163 0.316634 -5.86194 -3.28828 0.0349822 -6.73564 -3.32995 0.000539214 -6.83177 -3.2362 0.522727 -6.06771 -3.60592 0.0828958 -6.11135 -3.52981 0.706922 -6.24386 -3.53167 0.700291 -6.31966 -0.135058 0.254566 -4.38567 0.439812 0.635646 -5.10975 0.690762 1.04504 -5.98692 0.801734 1.40591 -6.82001 0.996699 1.49891 -7.29172 1.11275 1.55623 -7.67099 1.25521 1.608 -8.06809 1.38426 1.68915 -8.49084 1.48891 1.71336 -8.86812 1.64878 1.73741 -9.2743 1.82325 1.75674 -9.71583 2.02888 1.75117 -10.1136 2.22223 1.8114 -10.4319 2.51284 2.01374 -10.7576 2.76312 2.17165 -11.0331 3.02856 2.43272 -11.2828 3.29229 2.66768 -11.5315 3.51132 2.908 -11.7681 3.70282 3.2562 -11.9864 3.91062 3.61781 -12.217 0.801734 1.40591 -6.82001 0.110927 2.01865 -7.20385 -0.456101 2.69001 -7.59423 0.996699 1.49891 -7.29172 0.818377 2.02592 -8.12267 0.768392 2.17312 -8.37479 1.11275 1.55623 -7.67099 1.01524 2.41405 -8.0048 1.25521 1.608 -8.06809 0.964986 1.58781 -8.37482 -0.248002 0.452671 -4.811 -0.892793 1.15125 -5.12121 -1.44419 1.77499 -5.67521 -1.75366 2.18329 -5.9769 -2.01343 2.52305 -6.20027 -2.25046 2.86165 -6.39894 -2.45814 3.16191 -6.60729 -2.72507 3.41743 -6.817 -2.91117 3.71026 -7.06314 -3.12172 4.05374 -7.38187 -3.26583 4.29874 -7.65852 -3.3794 4.52608 -7.91634 -3.5172 4.65243 -8.31406 -3.46813 4.68293 -8.76068 -3.32363 4.72667 -9.15486 -3.09966 4.76881 -9.46251 -3.00965 4.78794 -9.899 -3.01967 4.85264 -10.3376 -3.02945 4.88307 -10.7488 -3.07419 4.91714 -11.1382 -3.14424 4.97656 -11.5873 -3.1589 4.99149 -11.6428 -1.75366 2.18329 -5.9769 -2.34815 2.58824 -5.28221 -3.00961 2.83636 -4.57446 -3.01619 2.83887 -4.567 -2.01343 2.52305 -6.20027 -2.58368 1.77481 -6.5393 -2.99311 1.43631 -6.78861 -2.25046 2.86165 -6.39894 -2.83704 3.39142 -5.78635 -2.85001 3.40365 -5.77204 -2.45814 3.16191 -6.60729 -2.35464 3.67355 -6.39626 -2.72507 3.41743 -6.817 -2.74173 3.41187 -6.82363 -0.294358 0.576416 -5.301 -0.960302 1.23185 -5.65727 -1.62508 1.80439 -6.13713 -2.12959 2.44416 -6.71693 -2.24074 2.57172 -6.84264 -2.61398 2.84016 -7.04937 -2.93888 3.08036 -7.21878 -3.21859 3.30864 -7.43103 -3.53485 3.60666 -7.54911 -3.91796 3.97405 -7.68561 -4.20926 4.26141 -7.8268 -4.53485 4.5495 -7.95867 -4.85183 4.75496 -8.05624 -5.1528 4.9625 -8.1498 -5.44307 5.19026 -8.21602 -5.77606 5.48796 -8.2825 -6.01215 5.88526 -8.42746 -6.27376 6.25109 -8.54025 -6.56365 6.54114 -8.63581 -2.24074 2.57172 -6.84264 -3.21788 2.60562 -6.63275 -3.34182 2.61254 -6.60808 -2.61398 2.84016 -7.04937 -2.68866 2.78348 -7.55608 -0.326549 0.629895 -5.6705 0.133641 -0.013782 -6.28198 0.676058 -0.0886687 -7.11874 1.04453 -0.187108 -7.66962 1.24181 -0.32248 -8.09979 1.38804 -0.466524 -8.43324 1.5175 -0.643751 -8.78629 1.57965 -0.847633 -9.1712 1.64121 -0.962822 -9.46653 1.83017 -1.03617 -9.90319 2.00107 -1.09195 -10.3032 2.1947 -1.08353 -10.7839 2.37496 -1.16238 -11.1878 2.39447 -1.4291 -11.5214 2.41572 -1.72009 -11.8853 2.4301 -1.90073 -12.2089 2.48716 -1.94987 -12.7048 2.41866 -2.0722 -13.1612 2.30988 -2.19115 -13.6197 2.21873 -2.29894 -14.0228 2.208 -2.3311 -14.1554 1.04453 -0.187108 -7.66962 0.841606 0.297864 -8.52028 0.675109 0.579931 -9.44347 1.24181 -0.32248 -8.09979 2.00798 -0.964113 -8.06371 2.36976 -1.28232 -8.06876 1.38804 -0.466524 -8.43324 1.63696 0.227728 -9.10856 1.69095 0.356807 -9.25762 1.5175 -0.643751 -8.78629 1.3124 -0.551704 -9.47362 1.57965 -0.847633 -9.1712 1.47498 -0.800696 -9.31279 -0.40484 0.713642 -5.96626 -0.80189 -0.0151901 -6.52407 -1.11596 -0.82182 -7.02477 -1.42963 -1.63135 -7.52102 -1.48235 -1.77223 -7.60052 -1.58988 -2.11135 -7.77354 -1.81351 -2.44253 -7.94091 -2.07493 -2.77847 -8.12692 -2.31179 -3.08929 -8.30412 -2.5402 -3.4399 -8.49308 -2.81094 -3.80567 -8.74432 -3.016 -4.16362 -8.76016 -3.25212 -4.47063 -8.74315 -3.48947 -4.87185 -8.74466 -3.67838 -5.20809 -8.70459 -3.81374 -5.52999 -8.65851 -3.91623 -5.9576 -8.64491 -4.03431 -6.43871 -8.63222 -4.17025 -6.82197 -8.54395 -4.17344 -6.83153 -8.54181 -1.48235 -1.77223 -7.60052 -1.29707 -2.03564 -8.45001 -1.58988 -2.11135 -7.77354 -1.3883 -2.47576 -7.55237 -0.596925 0.768216 -6.38868 -0.281546 0.834134 -7.33535 -0.268364 0.707483 -8.32721 -0.202906 0.638284 -9.27938 -0.165348 0.61314 -9.75025 -0.202044 0.575849 -10.1825 -0.258379 0.533431 -10.6046 -0.340466 0.467304 -11.002 -0.436953 0.38869 -11.473 -0.532373 0.313021 -11.8931 -0.631137 0.236452 -12.3225 -0.727616 0.157662 -12.745 -0.836183 0.0678326 -13.174 -0.943236 -0.031958 -13.6243 -1.03991 -0.121951 -14.0309 -1.13276 -0.253605 -14.3723 -1.25744 -0.36512 -14.8183 -1.28377 -0.467685 -15.2506 -1.3237 -0.483344 -15.6741 -1.32623 -0.484068 -15.7034 -0.202906 0.638284 -9.27938 -0.791436 0.0650724 -9.84952 -0.961273 -0.107877 -9.96941 -0.165348 0.61314 -9.75025 0.0274378 1.2232 -10.0438 -0.202044 0.575849 -10.1825 -0.110053 0.433304 -10.2637 -0.78222 0.748572 -6.68456 -0.91016 -0.0472466 -7.27643 -0.950826 -0.68673 -8.04416 -0.85044 -1.0871 -8.95499 -0.842135 -1.14371 -9.08904 -0.880808 -1.38198 -9.48935 -0.950498 -1.55263 -9.88925 -1.0426 -1.66898 -10.3144 -1.01551 -1.65585 -10.7358 -1.05749 -1.66031 -11.2967 -1.01194 -1.67456 -11.6361 -0.824667 -1.67613 -12.0009 -0.662618 -1.64417 -12.3987 -0.492008 -1.46353 -12.811 -0.285389 -1.28068 -13.205 -0.1561 -1.05374 -13.5868 -0.00217562 -0.996346 -14.0013 0.138658 -0.957129 -14.3509 0.232824 -0.905678 -14.5749 -0.842135 -1.14371 -9.08904 -1.41898 -0.979084 -9.57307 -0.880808 -1.38198 -9.48935 -0.996917 -1.29664 -9.63285 -0.934675 0.692851 -7.05014 -1.70527 0.276032 -7.53227 -2.47074 -0.190575 -7.97536 -3.22889 -0.303279 -8.61763 -3.28756 -0.312058 -8.67387 -3.54046 -0.289777 -8.96897 -3.84884 -0.321758 -9.3494 -4.1886 -0.271919 -9.73778 -4.51807 -0.268866 -10.1056 -4.75752 -0.14883 -10.4211 -4.94552 -0.167131 -10.769 -5.06321 -0.180921 -11.1713 -4.9954 -0.268871 -11.6469 -4.92071 -0.274907 -12.0572 -4.85743 -0.369605 -12.5025 -4.72686 -0.464472 -12.9919 -4.52566 -0.577883 -13.3772 -4.31312 -0.685382 -13.8252 -4.22868 -0.681483 -14.1096 -3.28756 -0.312058 -8.67387 -3.28533 -1.07181 -9.16846 -3.54046 -0.289777 -8.96897 -3.36974 -0.282786 -9.39809 -1.0613 0.636704 -7.37368 -1.28272 1.33894 -8.05031 -1.44684 2.06528 -8.71777 -1.20367 2.61762 -9.37023 -1.13946 2.8761 -9.66989 -1.12149 3.16745 -10.0095 -1.10463 3.42554 -10.3019 -1.16553 3.73919 -10.5874 -1.18609 4.02309 -10.8676 -1.14657 4.32704 -11.2249 -1.14987 4.49518 -11.578 -1.10395 4.79739 -11.8343 -1.13647 5.07244 -12.2268 -1.18136 5.22126 -12.5114 -1.25555 5.45577 -12.8723 -1.3647 5.66653 -13.3154 -1.51047 5.80391 -13.6507 -1.63859 5.9577 -14.0097 -1.6521 5.97406 -14.0491 -1.20367 2.61762 -9.37023 -0.390994 3.17537 -9.20152 -0.371719 3.18734 -9.198 -1.13946 2.8761 -9.66989 -1.01095 2.81129 -10.1939 -1.30647 0.514112 -7.84091 -2.25906 0.773867 -7.99934 -3.24437 0.690567 -8.14844 -4.04571 0.626271 -8.28053 -4.53247 0.573851 -8.30448 -4.91262 0.614108 -8.41496 -5.30992 0.665726 -8.52148 -5.67579 0.724913 -8.73978 -6.01726 0.773245 -8.96231 -6.30728 0.866008 -9.21723 -6.59057 0.950411 -9.46173 -6.8527 1.10047 -9.79703 -7.10476 1.23444 -10.1669 -7.30354 1.38544 -10.431 -7.51134 1.57128 -10.8673 -7.67584 1.73367 -11.167 -7.93241 2.01331 -11.5556 -8.09219 2.17492 -11.8234 -4.04571 0.626271 -8.28053 -4.6245 1.09605 -7.81258 -4.53247 0.573851 -8.30448 -4.64537 0.390611 -8.10023 -1.46206 0.41981 -8.19703 -0.953444 0.10798 -8.99957 -0.50969 -0.54972 -9.60827 -0.155497 -0.972755 -10.4423 -0.0920834 -1.03897 -10.5906 0.0417438 -1.17334 -10.9641 0.192728 -1.3189 -11.3615 0.320912 -1.42372 -11.7532 0.464083 -1.57192 -12.157 0.624432 -1.73905 -12.6067 0.74 -1.86133 -13.0363 0.699762 -1.98336 -13.4926 0.673891 -2.09136 -13.9444 0.794675 -2.21053 -14.353 0.951024 -2.19029 -14.7699 1.08518 -2.17065 -15.1593 1.22414 -2.155 -15.5654 1.29702 -2.13074 -15.7789 -1.62771 0.273563 -8.50007 -1.09114 -0.349614 -9.06905 -0.598768 -0.860118 -9.774 -0.108961 -1.3207 -10.5142 0.130808 -1.57604 -10.9959 0.326542 -1.786 -11.3922 0.481804 -1.91111 -11.7807 0.642884 -2.09033 -12.1683 0.861199 -2.25251 -12.5311 1.01902 -2.41714 -12.8061 1.20042 -2.524 -13.2521 1.44781 -2.55609 -13.565 1.65984 -2.62828 -13.9319 1.88618 -2.75391 -14.2962 2.10409 -2.84991 -14.6137 2.24988 -3.00494 -15.021 2.29933 -3.04314 -15.1826 -1.80439 0.0978957 -8.92451 -2.43956 -0.674123 -8.90122 -3.16249 -1.36301 -8.84824 -3.72008 -1.69316 -8.89742 -4.1334 -1.947 -8.90134 -4.42897 -2.26765 -9.01291 -4.6931 -2.57874 -9.12061 -4.9961 -2.98095 -9.22524 -5.1725 -3.31235 -9.41097 -5.35286 -3.69776 -9.51014 -5.51398 -4.12213 -9.64449 -5.65997 -4.49197 -9.79135 -5.8251 -4.87484 -9.92631 -6.03277 -5.21318 -10.0235 -6.22432 -5.51335 -10.1739 -6.37919 -5.82724 -10.3937 -1.94964 0.00470016 -9.22445 -1.41833 -0.616391 -9.8006 -0.879177 -1.40643 -10.0924 -0.716015 -2.1336 -10.1959 -0.739715 -2.48112 -10.2563 -0.791016 -2.9629 -10.2814 -0.821257 -3.40556 -10.3316 -0.716385 -3.81596 -10.3257 -0.53998 -4.23592 -10.2889 -0.354263 -4.66769 -10.3538 -0.189082 -5.05566 -10.4222 0.0016019 -5.46252 -10.5028 0.118864 -5.93599 -10.5049 0.0829226 -6.37946 -10.4857 0.0416379 -6.82191 -10.4554 0.0608962 -7.20037 -10.4564 -2.11633 -0.0970646 -9.5791 -1.63095 -0.640253 -10.2642 -1.03142 -1.0051 -10.9766 -0.428704 -1.15863 -11.7596 -0.352477 -1.18883 -11.8808 -0.143091 -1.34088 -12.3199 -0.0495264 -1.51499 -12.6661 0.0772494 -1.65648 -13.0282 0.216528 -1.74673 -13.4037 0.3425 -1.82228 -13.7658 0.463161 -2.02946 -14.1586 0.622321 -2.22215 -14.4888 0.818605 -2.473 -14.7772 1.0038 -2.71673 -15.0558 1.12416 -3.04251 -15.4144 1.23395 -3.34305 -15.7456 1.33795 -3.62315 -16.0517 1.35854 -3.67283 -16.114 -2.09966 -0.197477 -10.129 -2.83787 -0.742061 -10.5271 -3.54274 -1.19816 -11.0703 -4.27443 -1.70738 -11.5131 -4.53904 -1.9684 -11.6606 -4.87093 -2.22649 -11.8797 -5.14825 -2.46174 -12.0534 -5.47489 -2.71401 -12.2408 -5.77408 -2.95237 -12.4409 -6.03388 -3.18603 -12.6321 -6.30579 -3.42937 -12.8297 -6.55855 -3.64122 -12.9844 -6.85082 -3.87194 -13.0849 -7.08931 -4.23122 -13.266 -7.25498 -4.55791 -13.4421 -7.32683 -4.88628 -13.6498 -7.37858 -5.09674 -13.7811 -2.19395 -0.291886 -10.6358 -2.27346 -1.2441 -10.9307 -2.21498 -2.22464 -11.1181 -2.1091 -3.15016 -11.3558 -1.89995 -3.56132 -11.4276 -1.70967 -3.91892 -11.4919 -1.55017 -4.30237 -11.6123 -1.38792 -4.62399 -11.7092 -1.22245 -4.99699 -11.8095 -1.02428 -5.47183 -11.9555 -0.862093 -5.87239 -12.0423 -0.691457 -6.27722 -12.1654 -0.570393 -6.75759 -12.2548 -0.452255 -7.20903 -12.3419 -0.293361 -7.61514 -12.4175 -0.241854 -7.75901 -12.4442 -2.21732 -0.421305 -11.1584 -1.40403 -0.437805 -11.7401 -0.669088 -0.34277 -12.4115 0.180336 0.0912237 -12.7117 0.43446 0.242046 -12.801 0.760931 0.440862 -12.9139 1.21016 0.715402 -13.0659 1.52956 0.924986 -13.2539 1.80494 1.22653 -13.4865 2.07119 1.55019 -13.6204 2.29987 1.77534 -13.8643 2.62046 2.05301 -14.1837 2.80775 2.27784 -14.4037 3.08112 2.54488 -14.728 3.29973 2.60078 -15.0911 3.34456 2.60949 -15.1681 -2.25729 -0.533471 -11.5398 -3.06519 -0.888835 -12.0099 -3.93572 -1.18492 -12.403 -4.84905 -1.23943 -12.8066 -5.1698 -1.23336 -12.9557 -5.61085 -1.11935 -13.1097 -5.98683 -1.02538 -13.2444 -6.48344 -0.949766 -13.4005 -6.872 -0.877623 -13.5299 -7.27324 -0.805582 -13.6656 -7.69859 -0.729241 -13.8044 -8.0444 -0.634653 -13.967 -8.4076 -0.544496 -14.1525 -8.75867 -0.451589 -14.4062 -9.17673 -0.282756 -14.602 -9.2514 -0.249351 -14.6358 -2.30092 -0.655811 -11.9507 -3.17033 -0.47045 -12.4087 -4.10374 -0.236748 -12.681 -4.97261 0.17402 -12.9573 -5.19085 0.290633 -13.0344 -5.59552 0.486515 -13.1871 -5.91896 0.830995 -13.3999 -6.14897 1.16946 -13.6604 -6.42672 1.51983 -13.9863 -6.62627 1.77018 -14.2237 -6.81091 2.02214 -14.4891 -7.05575 2.31492 -14.7159 -7.3053 2.66545 -14.8947 -7.54954 3.00398 -15.065 -7.61224 3.09099 -15.1085 -2.34815 -0.771044 -12.3392 -1.43391 -0.743437 -12.7434 -0.523982 -0.732673 -13.158 0.395361 -0.797804 -13.5461 0.710396 -0.879618 -13.6983 1.05349 -0.995691 -13.9346 1.33983 -1.30709 -14.1558 1.4952 -1.56492 -14.3648 1.57249 -1.9455 -14.6361 1.65264 -2.26894 -14.876 1.74704 -2.63455 -15.0822 1.89116 -3.06719 -15.3752 2.00188 -3.40011 -15.6009 2.08607 -3.81894 -15.899 2.09986 -3.87265 -15.9371 -2.37885 -0.948408 -12.9363 -2.61496 -0.190572 -13.5446 -2.79113 0.640319 -14.0724 -2.75682 1.45192 -14.311 -2.74992 1.95232 -14.3776 -2.7586 2.33706 -14.4466 -2.82922 2.76524 -14.5668 -2.95708 3.15088 -14.6281 -2.98688 3.58323 -14.8023 -2.94624 4.00173 -14.9559 -2.93765 4.36434 -15.0665 -2.92748 4.76 -15.2317 -2.97853 5.11392 -15.478 -3.1315 5.45184 -15.6527 -3.18076 5.5848 -15.7129 -2.43305 -1.02202 -13.3737 -2.07317 -1.53387 -14.1537 -1.25695 -1.74695 -14.6907 -0.648947 -1.94664 -14.8577 -0.23761 -2.06506 -15.0123 0.174497 -2.17307 -15.168 0.577403 -2.16154 -15.2244 0.92376 -2.11067 -15.2291 1.38186 -2.14599 -15.3494 1.78187 -2.11355 -15.4802 2.16936 -2.04566 -15.6433 2.63997 -1.97164 -15.8322 3.06454 -1.88947 -15.9484 3.44276 -1.80208 -16.0422 3.78575 -1.74443 -16.1876 -2.45476 -1.08515 -13.81 -2.34081 -0.552838 -14.6488 -2.6188 -0.251085 -15.5608 -2.94439 -0.188457 -16.5042 -2.98071 -0.187877 -16.6145 -3.16745 -0.206224 -17.0368 -3.31513 -0.198893 -17.4244 -3.37543 -0.225047 -17.8183 -3.41891 -0.258861 -18.2498 -3.45298 -0.360429 -18.6751 -3.52906 -0.438708 -19.0353 -3.62256 -0.535482 -19.4832 -3.71258 -0.628299 -19.9151 -3.79044 -0.718969 -20.2252 -2.46837 -1.10302 -14.2866 -1.685 -1.33474 -14.8633 -0.944169 -1.58033 -15.4885 -0.0441004 -1.40748 -15.8885 0.323563 -1.34873 -16.0285 0.686028 -1.28611 -16.1285 1.09062 -1.19634 -16.3576 1.46004 -1.10194 -16.6423 1.79608 -1.00926 -16.8688 2.26905 -0.889802 -17.0617 2.6776 -0.836103 -17.0874 3.07084 -0.78059 -17.1209 3.24002 -0.752175 -17.1422 -2.45535 -1.1283 -14.7204 -2.30042 -2.03614 -15.11 -2.15576 -2.93057 -15.5332 -2.02299 -3.72148 -15.944 -1.93302 -4.09502 -16.1063 -1.9262 -4.4845 -16.3485 -1.91746 -4.86282 -16.5801 -1.88247 -5.27478 -16.8176 -1.87115 -5.65578 -17.0566 -1.8301 -6.0446 -17.2831 -1.82322 -6.40242 -17.4515 -1.78146 -6.73903 -17.6366 -2.49293 -1.10894 -15.11 -1.76915 -1.41808 -15.7269 -1.04596 -1.7251 -16.3456 -0.81664 -2.10001 -17.2438 -0.801279 -2.12268 -17.3055 -0.694647 -2.39214 -17.6908 -0.620561 -2.61331 -18.0844 -0.666404 -2.83469 -18.5449 -0.754469 -3.00571 -19.0009 -0.865002 -3.12598 -19.3985 -0.984399 -3.23677 -19.8029 -1.11062 -3.34413 -20.2335 -1.14498 -3.3774 -20.3838 -2.51899 -1.0034 -15.4151 -2.28027 -1.58281 -16.1944 -1.85885 -1.81464 -17.0712 -1.4065 -1.99137 -17.9453 -1.30582 -2.03379 -18.1481 -1.09069 -2.08741 -18.4796 -0.857698 -2.12155 -18.8516 -0.645843 -2.14871 -19.2075 -0.41917 -2.17889 -19.5877 -0.246513 -2.15579 -19.9004 0.00407489 -2.14566 -20.3131 0.150294 -2.11486 -20.6348 -2.43658 -0.847504 -15.8539 -3.00293 -0.0923971 -16.1842 -3.5337 0.562515 -16.7221 -4.25527 1.08215 -17.1796 -4.47216 1.22666 -17.3114 -4.75506 1.4021 -17.5523 -5.06059 1.55878 -17.7514 -5.38225 1.78246 -17.9398 -5.70388 2.04007 -18.1197 -5.91659 2.28419 -18.4257 -6.09224 2.4802 -18.752 -6.19244 2.56986 -18.8895 -2.30844 -0.739755 -16.3267 -2.86405 -0.584608 -17.1435 -3.28991 -0.428983 -18.0348 -3.49772 -0.147511 -18.9716 -3.55741 -0.0503942 -19.2478 -3.61658 -0.0291191 -19.7523 -3.72267 0.0182309 -20.1987 -3.84609 0.0715208 -20.6768 -4.00056 0.247449 -20.9753 -4.26502 0.439235 -21.3312 -4.39554 0.498182 -21.4959 -2.22649 -0.688245 -16.7714 -2.67615 -1.22581 -17.4847 -3.12697 -1.76954 -18.1926 -3.8169 -2.28555 -18.7003 -4.24028 -2.54576 -19.1119 -4.53109 -2.72304 -19.3829 -4.79986 -2.82075 -19.6901 -5.03523 -2.8832 -20.0437 -5.35464 -2.92309 -20.3282 -5.60243 -2.97563 -20.51 -2.16198 -0.656022 -17.1621 -1.62181 -1.38899 -17.5756 -1.09103 -1.96874 -18.1938 -0.461229 -2.4753 -18.7827 -0.421586 -2.50747 -18.8199 -0.176094 -2.7067 -19.0636 0.0929286 -2.92098 -19.3094 0.39674 -3.12834 -19.5725 0.72241 -3.33096 -19.7814 1.00889 -3.52099 -19.9698 1.32472 -3.74653 -20.1637 -2.01753 -0.68032 -17.5863 -2.31408 -1.61662 -17.7744 -2.26578 -2.52654 -18.1864 -2.24501 -3.35404 -18.7366 -2.22944 -3.72123 -18.9615 -2.19365 -4.08834 -19.1657 -2.14215 -4.52266 -19.3418 -2.06499 -4.91371 -19.5037 -1.99322 -5.28571 -19.6601 -1.88564 -5.67299 -19.8285 -1.86413 -5.73869 -19.8571 -1.84061 -0.736407 -18.062 -0.958001 -0.269526 -18.1169 -0.269085 0.42183 -17.8992 0.68562 0.714797 -17.8471 0.934901 0.809109 -17.7895 1.34842 0.970312 -17.6803 1.75652 1.18172 -17.5749 2.09314 1.36146 -17.5211 2.42999 1.64075 -17.4743 2.55819 1.71776 -17.4632 -1.70467 -0.716795 -18.5574 -2.64367 -0.732931 -18.9009 -3.55931 -0.73026 -19.3029 -4.28281 -0.732055 -19.5007 -4.63071 -0.758884 -19.6009 -5.06462 -0.790459 -19.7281 -5.4798 -0.813252 -19.801 -5.9118 -0.808516 -19.8762 -6.15524 -0.812304 -19.9191 -1.579 -0.702193 -18.8834 -0.651185 -0.488815 -18.5774 0.274862 -0.192716 -18.3434 1.23729 0.0126122 -18.1657 1.35106 0.035817 -18.1442 1.75152 0.14334 -18.1506 2.18859 0.231424 -18.2046 2.59871 0.296851 -18.2727 2.91274 0.326749 -18.3189 -1.31738 -0.734084 -19.4908 -1.73642 -1.12504 -20.3103 -2.35681 -1.28108 -21.0789 -3.00348 -1.53943 -21.7966 -3.09395 -1.57795 -21.8995 -3.39294 -1.71415 -22.2492 -3.6745 -1.80548 -22.5923 -3.79762 -1.8442 -22.7223 -1.10377 -0.788172 -19.9147 -1.16006 0.20052 -20.0537 -1.415 1.13952 -20.2846 -1.34812 2.00537 -20.528 -1.32934 2.43168 -20.6394 -1.36152 2.79444 -20.8343 -1.33277 3.11614 -21.0522 -0.919732 -0.828645 -20.3157 -1.49177 -1.31155 -20.9787 -2.23235 -1.83501 -21.4001 -2.78241 -2.3458 -21.6485 -3.00273 -2.67971 -21.892 -3.17896 -3.04881 -22.0022 -0.72447 -0.811043 -20.7221 0.215748 -1.00904 -20.9992 1.08632 -1.3537 -21.3503 1.8386 -1.82382 -21.5738 2.21469 -2.05947 -21.6169 2.36073 -2.2099 -21.6701 -0.620945 -0.760079 -21.2082 -1.08404 -1.18668 -21.9851 -1.34956 -1.35625 -22.9342 -1.50546 -1.44856 -23.3552 -1.76186 -1.54067 -23.7558 -1.91597 -1.59509 -23.9951 -0.55139 -0.716807 -21.7182 -0.977437 0.0338964 -22.2231 -1.24319 0.739821 -22.8796 -1.21769 1.4243 -23.5951 -1.21362 1.55248 -23.7259 -0.486364 -0.69357 -22.1533 -0.970271 -1.52218 -22.4348 -1.47775 -2.30612 -22.7924 -1.99776 -2.84171 -22.8445 -0.532302 -0.665139 -22.6649 -0.567261 -1.55523 -23.1193 -0.732673 -2.06434 -23.964 -0.841187 -2.1701 -24.4144 -0.517707 -0.678189 -23.1111 -0.758226 -1.50706 -23.6162 -0.911237 -2.34704 -24.1368 -0.923588 -2.40763 -24.1744 -0.49041 -0.552414 -23.6068 -0.34383 -1.18421 -24.3679 -0.235526 -1.6304 -24.9068 -0.390476 -0.441851 -24.133 0.0418499 0.406928 -24.4374 0.138574 0.748084 -24.5384 -0.329612 -0.376014 -24.4412 -0.976325 -0.195001 -25.1822 -1.09345 -0.154037 -25.3263 -0.221742 -0.285984 -24.9265 -0.737742 -0.282673 -25.5807 -0.11688 -0.198125 -25.3953 0.144394 -0.457878 -25.628 -0.0205837 -0.119191 -25.8171 -0.0697934 -0.126976 -25.8716 
</DataArray>
</Points>
<Lines>
<DataArray type="Int32" Name="connectivity" NumberOfComponents="1" format="ascii" >