<?xml version="1.0"?><VTKFile type="PolyData" version="0.1" byte_order="LittleEndian">
<PolyData>
<Piece NumberOfLines="98" NumberOfPoints="788">
<PointData Scalars=" PointData">
<DataArray type="Float32" Name="time" NumberOfComponents="1" format="ascii" >
0 0.813119 0.85629 1.11884 1.36307 1.62781 1.8978 2.14155 2.38706 2.6608 2.94818 3.23013 3.50975 3.793 4.04009 4.30438 4.59949 4.87657 5.15497 5.40915 5.71971 5.98999 6.27717 6.58395 6.88521 7.15428 7.45357 7.77391 8.07763 8.41127 8.70257 9.01078 9.30163 9.61372 9.93771 10.2607 10.5825 10.9186 11.2291 11.5779 11.8956 12.2569 12.6096 12.9439 13.2932 13.6411 13.9733 14.3213 14.6926 15.0465 15.4118 15.8037 16.1982 16.5088 16.8744 17.2675 17.6399 18.0168 18.4082 18.7648 19.1369 19.5111 19.8988 20.3263 20.7331 21 3.98174 5.39025 6.86397 6.90925 7.71124 8.37754 9.10742 9.75176 10.4908 11.2794 12.0393 12.8346 13.7093 14.4938 15.3521 16.2592 17.1398 18.0164 19.08 20.2051 21 16.1628 18.7484 21 17.24 19.794 21 18.142 21 19.138 21 20.0243 21 4.26525 5.68276 7.16642 7.21202 7.8324 8.58911 9.29347 9.92634 10.6846 11.3828 12.1332 12.9583 13.8055 14.6098 15.525 16.4362 17.3954 18.2871 19.1451 20.2702 21 16.2457 18.908 21 17.0726 19.7228 21 18.0886 20.5865 21 19.0419 21 19.9049 21 20.9472 21 4.52909 5.99588 7.53051 7.57766 8.36658 9.05345 9.779 10.5347 11.3265 12.0937 12.7965 13.5585 14.4283 15.3914 16.2737 17.1217 18.0325 18.9921 20.0489 21 17.0981 19.4692 21 18.1534 20.5632 21 19.0792 21 20.0645 21 4.81524 6.27954 7.81078 7.85781 8.53867 9.23274 9.94943 10.7529 11.4697 12.3484 13.0614 13.8483 14.6949 15.5399 16.39 17.3361 18.2646 19.3648 20.4402 21 17.9346 20.5844 21 18.8577 21 19.8057 21 20.7923 21 5.10723 6.59265 8.14629 8.19401 8.99359 9.7542 10.4718 11.2369 12.0794 12.8212 13.6079 14.5189 15.4402 16.4218 17.2982 18.3837 19.3127 20.312 21 17.2892 19.8337 21 18.3392 20.8889 21 19.3453 21 20.3013 21 5.37096 6.83563 8.367 8.41403 9.22381 9.9658 10.6637 11.5549 12.3388 13.0881 13.8937 14.8232 15.7373 16.5556 17.4715 18.4919 19.3577 20.2594 21 17.9343 20.6187 21 19.0132 21 20.0096 21 20.9538 21 5.63673 7.1319 8.69509 8.74311 9.46604 10.239 10.9601 11.8092 12.5764 13.3465 14.1792 15.0193 15.9195 16.8226 17.731 18.7058 19.6056 20.6369 21 18.8961 21 19.8711 21 20.9216 21 5.93323 7.43268 8.99921 9.0473 9.76003 10.5349 11.3725 12.1598 12.9264 13.6587 14.5134 15.2661 16.25 17.2113 18.0999 19.0878 20.1 21 19.8095 21 20.7822 21 6.24467 7.67028 9.16119 9.20699 9.91251 10.6369 11.4063 12.1542 12.9077 13.6061 14.4862 15.2497 16.1257 16.9704 17.8914 18.8568 19.7889 20.81 21 18.3746 20.9398 21 19.313 21 20.2835 21 6.55041 8.02052 9.55744 9.60465 10.2724 11.0379 11.7039 12.3735 13.1121 13.9012 14.6778 15.4519 16.3008 17.1979 18.0215 18.9113 19.8934 20.8783 21 20.1934 21 6.85378 8.19661 9.60008 9.64318 10.2945 11.0258 11.7422 12.4357 13.1175 13.8806 14.6388 15.3786 16.214 17.1444 17.9799 18.8882 19.7459 20.5713 21 18.797 21 19.6746 21 20.6677 21 7.1613 8.65383 10.2139 10.2618 11.0583 11.8909 12.7141 13.4606 14.2512 15.1994 16.1521 16.9973 17.8615 18.888 19.7664 20.7931 21 19.8196 21 20.8746 21 7.42969 8.98307 10.6069 10.6568 11.3765 12.2326 13.0247 13.8822 14.6878 15.5298 16.4436 17.2574 18.2531 19.1468 20.0732 21 20.7603 21 7.71693 9.16265 10.6739 10.7203 11.3648 12.0525 12.8663 13.5846 14.3582 15.1644 15.9154 16.8359 17.7161 18.5089 19.3311 20.1799 21 8.03785 9.46597 10.9597 11.0056 11.7258 12.4331 13.1446 13.9272 14.6672 15.3954 16.2066 17.0807 17.8797 18.7959 19.824 20.7762 21 20.0402 21 20.9946 21 8.33936 9.78047 11.2879 11.3342 12.0448 12.7509 13.4467 14.1707 14.9979 15.8255 16.6566 17.482 18.2983 19.1627 19.9667 20.9207 21 20.3392 21 8.64248 10.0361 11.493 11.5377 12.1906 12.9251 13.6703 14.4216 15.2126 15.9983 16.7403 17.4765 18.3443 19.1816 20.0284 20.9187 21 20.8326 21 8.91939 10.5074 12.1675 12.2185 13.0201 13.7818 14.5417 15.3221 16.209 16.9901 17.9723 18.9163 19.7248 20.5457 21 9.25794 10.6854 12.178 12.2239 12.938 13.6725 14.3584 15.0591 15.7433 16.5329 17.4071 18.1642 19.0358 19.9389 20.7942 21 9.55276 10.9822 12.4768 12.5227 13.2788 13.9295 14.7247 15.4822 16.2133 16.9896 17.7748 18.524 19.3458 20.2768 21 9.86621 11.2709 12.7389 12.784 13.5275 14.1695 14.8756 15.5825 16.229 16.9319 17.6957 18.54 19.314 20.1668 21 10.2013 11.6258 13.1177 13.1635 13.8201 14.4833 15.1758 15.9282 16.6215 17.2877 17.9895 18.8041 19.7206 20.6406 21 10.5306 12.0555 13.6494 13.6984 14.5091 15.2666 15.9669 16.8029 17.6568 18.5072 19.4038 20.364 21 10.8248 12.3103 13.8658 13.9136 14.7255 15.4953 16.2273 17.1088 17.8707 18.7145 19.5388 20.3765 21 11.1524 12.5702 14.0525 14.098 14.734 15.4327 16.1797 16.8654 17.6338 18.4468 19.2538 20.094 20.9043 21 11.5032 12.8404 14.238 14.2809 14.9135 15.6072 16.3309 17.074 17.7956 18.5011 19.229 20.0428 20.8712 21 11.8361 13.3481 14.9301 14.9787 15.7398 16.5585 17.3371 18.0901 18.893 19.5752 20.3907 21 12.202 13.7608 15.39 15.44 16.2773 16.9923 17.7618 18.4911 19.3197 20.2548 21 12.5218 14.0564 15.6627 15.712 16.4821 17.1889 18.0078 18.7721 19.6191 20.4355 21 12.8603 14.3736 15.957 16.0057 16.755 17.4591 18.2643 19.023 19.8671 20.7004 21 13.18 14.5699 16.0246 16.0693 16.7734 17.431 18.1415 18.8353 19.5494 20.2604 21 13.5233 14.9632 16.4697 16.516 17.2002 17.9026 18.676 19.4278 20.2109 21 13.88 15.3758 16.9393 16.9873 17.7585 18.5381 19.2509 20.0508 20.9048 21 14.2358 15.6929 17.2163 17.2631 18.0192 18.6863 19.4446 20.2507 20.9636 21 14.5907 16.0076 17.4876 17.533 18.1615 18.8548 19.6422 20.3565 21 14.9616 16.4031 17.91 17.9563 18.5836 19.3377 20.0553 20.8507 21 15.3046 16.7142 18.1868 18.232 18.8729 19.53 20.2496 20.9411 21 15.6901 17.2409 18.8621 18.9119 19.7081 20.508 21 16.0416 17.4521 18.9277 18.973 19.6049 20.2594 20.8885 21 16.4417 17.8724 19.3681 19.4141 20.0539 20.786 21 16.8326 18.2729 19.7794 19.8257 20.5168 21 17.2035 18.6865 20.2365 20.2841 20.9667 21 17.5914 19.0887 20.6565 20.7047 21 17.978 19.4456 20.9786 21 18.3476 19.7028 21 18.7351 20.2243 21 19.149 20.6619 21 19.5439 21 19.952 21 20.3902 21 20.8318 21 
</DataArray>

</PointData>
<CellData Scalars=" CellData">
<DataArray type="Float32" Name="radius" NumberOfComponents="1" format="ascii" >
0.105103 0.05 0.05 0.05 0.05 0.05 0.05 0.05 0.05 0.05 0.05 0.05 0.05 0.05 0.05 0.05 0.05 0.05 0.05 0.05 0.05 0.05 0.05 0.05 0.05 0.05 0.05 0.05 0.05 0.05 0.05 0.05 0.05 0.05 0.05 0.05 0.05 0.05 0.05 0.05 0.05 0.05 0.05 0.05 0.05 0.05 0.05 0.05 0.05 0.05 0.05 0.05 0.05 0.05 0.05 0.05 0.05 0.05 0.05 0.05 0.05 0.05 0.05 0.05 0.05 0.05 0.05 0.05 0.05 0.05 0.05 0.05 0.05 0.05 0.05 0.05 0.05 0.05 0.05 0.05 0.05 0.05 0.05 0.05 0.05 0.05 0.05 0.05 0.05 0.05 0.05 0.05 0.05 0.05 0.05 0.05 0.05 0.05 
</DataArray>
<DataArray type="Float32" Name="subType" NumberOfComponents="1" format="ascii" >
1 2 3 3 3 3 3 2 3 3 3 3 3 3 2 3 3 3 3 2 3 3 3 3 2 3 3 3 3 2 3 3 3 3 2 3 3 3 2 3 3 2 3 3 3 2 3 2 3 3 3 2 3 3 2 3 2 2 3 3 2 3 2 3 2 2 2 2 2 2 2 2 2 2 2 2 2 2 2 2 2 2 2 2 2 2 2 2 2 2 2 2 2 2 2 2 2 2 
</DataArray>
<DataArray type="Float32" Name="creationTime" NumberOfComponents="1" format="ascii" >
0 3.98174 16.1628 17.24 18.142 19.138 20.0243 4.26525 16.2457 17.0726 18.0886 19.0419 19.9049 20.9472 4.52909 17.0981 18.1534 19.0792 20.0645 4.81524 17.9346 18.8577 19.8057 20.7923 5.10723 17.2892 18.3392 19.3453 20.3013 5.37096 17.9343 19.0132 20.0096 20.9538 5.63673 18.8961 19.8711 20.9216 5.93323 19.8095 20.7822 6.24467 18.3746 19.313 20.2835 6.55041 20.1934 6.85378 18.797 19.6746 20.6677 7.1613 19.8196 20.8746 7.42969 20.7603 7.71693 8.03785 20.0402 20.9946 8.33936 20.3392 8.64248 20.8326 8.91939 9.25794 9.55276 9.86621 10.2013 10.5306 10.8248 11.1524 11.5032 11.8361 12.202 12.5218 12.8603 13.18 13.5233 13.88 14.2358 14.5907 14.9616 15.3046 15.6901 16.0416 16.4417 16.8326 17.2035 17.5914 17.978 18.3476 18.7351 19.149 19.5439 19.952 20.3902 20.8318 
</DataArray>

</CellData>
<Points>
<DataArray type="Float32" Name="Coordinates" NumberOfComponents="3" format="ascii" >
0 0 -3 0.00501762 0.00161171 -3.99999 0.0055115 0.00181961 -4.05252 0.0079653 0.000559858 -4.37084 0.0104875 -0.00125716 -4.6651 0.0320691 -0.00824603 -4.98131 0.0274652 0.0227068 -5.30098 0.0229818 0.0355726 -5.58881 0.0185453 0.0479248 -5.87702 0.00687596 0.037733 -6.19629 -0.00438286 0.030773 -6.5293 -0.0138056 0.0198268 -6.85369 0.0147636 0.0258964 -7.17216 -0.00413213 0.0382085 -7.49312 -0.015518 0.0286367 -7.77157 -0.0129763 0.0202522 -8.06785 -0.0132493 0.0189597 -8.39655 -0.0190332 0.0194581 -8.70297 -0.0264056 0.0172117 -9.00872 -0.0262428 -0.00280252 -9.28542 -0.0219648 -0.0260692 -9.62122 -0.0133776 -0.0605788 -9.90992 -0.0118089 -0.046418 -10.2166 -0.003018 -0.0483888 -10.542 -0.00649313 -0.0446906 -10.8593 -0.00237709 -0.0479188 -11.1407 -0.00479019 -0.0442155 -11.4515 -0.0127827 -0.0409819 -11.7817 -0.0200739 -0.0440737 -12.0923 -0.0223583 -0.0533523 -12.4308 -0.0183105 -0.0362021 -12.7237 -0.02958 -0.0288595 -13.0316 -0.0283272 -0.0253832 -13.3203 -0.0328387 -0.021482 -13.6278 -0.0375668 -0.017429 -13.9445 -0.0258967 -0.0198976 -14.2576 -0.0253069 -0.0195792 -14.5673 -0.0245444 -0.0192678 -14.8882 -0.0213008 -0.0131886 -15.1822 -0.0179016 -0.00704469 -15.5098 -0.0156774 -0.00300771 -15.8059 -0.0172429 0.00031403 -16.1398 -0.0171183 -0.0290609 -16.4615 -0.0318657 -0.0672956 -16.7625 -0.0144786 -0.0908345 -17.0758 -0.00105105 -0.122315 -17.3847 0.0039453 -0.128189 -17.6789 -0.00624868 -0.11865 -17.9843 -0.0254004 -0.123424 -18.307 -0.031182 -0.129913 -18.6123 -0.0261654 -0.127604 -18.9248 -0.0180593 -0.137064 -19.2568 -0.01244 -0.155084 -19.5874 -0.0203874 -0.165562 -19.8456 -0.0227999 -0.179971 -20.1471 -0.032647 -0.188658 -20.4683 -0.0425728 -0.19355 -20.7698 -0.0504506 -0.191081 -21.0723 -0.0125237 -0.201066 -21.3811 0.0199902 -0.206417 -21.6601 0.032671 -0.201627 -21.9505 0.0382187 -0.180092 -22.2392 0.0377618 -0.1643 -22.536 0.0605809 -0.162995 -22.8598 0.0764526 -0.162881 -23.1651 0.0818873 -0.162941 -23.3639 0.0055115 0.00181961 -4.05252 -0.410614 -0.857806 -4.34897 -0.800866 -1.54802 -4.95833 -0.812945 -1.56873 -4.97636 -1.03375 -1.95603 -5.25229 -1.19293 -2.28121 -5.47616 -1.36341 -2.62935 -5.71666 -1.57203 -2.91937 -5.88305 -1.76019 -3.27313 -6.07037 -2.01457 -3.63708 -6.1937 -2.2183 -3.9951 -6.32813 -2.4106 -4.36693 -6.47192 -2.57618 -4.79821 -6.57911 -2.70516 -5.17778 -6.68384 -2.81583 -5.59064 -6.79551 -3.01452 -5.97859 -6.92304 -3.24206 -6.33165 -7.00862 -3.46057 -6.6792 -7.07023 -3.72207 -7.07938 -7.17091 -3.98609 -7.48941 -7.27828 -4.16788 -7.77061 -7.34943 -0.812945 -1.56873 -4.97636 -0.727336 -1.46607 -5.96738 -0.74086 -1.30709 -6.74012 -1.03375 -1.95603 -5.25229 -1.55933 -2.66144 -4.77672 -1.82892 -2.94747 -4.58623 -1.19293 -2.28121 -5.47616 -1.93871 -2.75118 -5.02824 -1.36341 -2.62935 -5.71666 -1.20405 -3.25798 -5.44746 -1.57203 -2.91937 -5.88305 -1.41081 -3.23992 -6.0871 0.0079653 0.000559858 -4.37084 -0.165717 -0.900278 -4.76875 -0.392816 -1.82523 -5.07352 -0.398733 -1.85318 -5.08268 -0.479497 -2.23041 -5.20238 -0.545157 -2.64425 -5.44086 -0.714873 -2.98907 -5.65218 -0.856294 -3.13763 -5.97903 -0.996061 -3.32232 -6.36754 -1.10473 -3.48105 -6.7263 -1.21729 -3.63674 -7.10835 -1.31946 -3.83189 -7.51076 -1.4022 -4.04241 -7.90989 -1.48279 -4.23602 -8.27884 -1.60119 -4.5013 -8.64832 -1.70335 -4.74982 -9.01515 -1.80857 -4.95421 -9.41911 -1.87636 -5.19247 -9.7579 -1.93561 -5.41194 -10.0784 -1.98632 -5.68443 -10.4937 -2.00408 -5.8496 -10.7609 -0.398733 -1.85318 -5.08268 0.0598261 -2.58536 -4.57907 0.356846 -3.14114 -4.241 -0.479497 -2.23041 -5.20238 0.299187 -2.85093 -5.29516 0.629496 -3.06177 -5.50726 -0.545157 -2.64425 -5.44086 -0.181631 -3.41086 -4.91156 -0.143883 -3.53619 -4.82741 -0.714873 -2.98907 -5.65218 -0.497825 -3.42891 -6.32031 -0.856294 -3.13763 -5.97903 -0.748789 -3.52953 -6.05 -0.996061 -3.32232 -6.36754 -1.01318 -3.31256 -6.37736 0.0104875 -0.00125716 -4.6651 -0.400834 -0.799962 -5.10429 -0.55642 -1.56298 -5.73166 -0.559698 -1.58554 -5.75116 -0.405632 -1.96329 -6.03266 -0.247311 -2.28335 -6.25765 -0.0612858 -2.63589 -6.43535 0.127957 -2.99509 -6.61641 0.311611 -3.33774 -6.85285 0.470503 -3.60905 -7.14717 0.514763 -3.86544 -7.43211 0.567604 -4.12003 -7.74808 0.625524 -4.41462 -8.09105 0.582447 -4.66742 -8.50969 0.65129 -4.88568 -8.88243 0.69316 -5.11112 -9.22187 0.775719 -5.35891 -9.56142 0.902646 -5.5708 -9.92417 1.05073 -5.80181 -10.3043 1.17674 -6.00369 -10.6374 -0.559698 -1.58554 -5.75116 -0.723695 -2.53174 -5.47221 -0.73201 -3.07937 -5.24798 -0.405632 -1.96329 -6.03266 -0.652208 -1.95139 -7.00171 -0.692047 -1.94875 -7.16722 -0.247311 -2.28335 -6.25765 0.42056 -2.60678 -6.2154 -0.0612858 -2.63589 -6.43535 0.308854 -2.70905 -6.35622 0.0320691 -0.00824603 -4.98131 -0.728421 0.227128 -5.58649 -1.4603 0.621452 -6.14225 -1.48192 0.633271 -6.15936 -1.77683 0.833412 -6.39916 -2.02009 1.04855 -6.6795 -2.26326 1.26376 -6.96709 -2.51572 1.50355 -7.29078 -2.73571 1.74371 -7.54727 -3.0453 1.91645 -7.89454 -3.31946 2.0904 -8.11642 -3.60054 2.26174 -8.38425 -3.92278 2.44334 -8.63266 -4.13582 2.6047 -8.97419 -4.35942 2.76201 -9.30009 -4.56936 2.87097 -9.69566 -4.74536 2.96954 -10.0865 -5.06758 3.01995 -10.4729 -5.39185 2.9914 -10.8236 -5.56888 2.9914 -10.99 -1.48192 0.633271 -6.15936 -1.17715 1.33354 -6.80491 -1.12851 1.43853 -6.8964 -1.77683 0.833412 -6.39916 -2.32435 0.455978 -6.96538 -2.02009 1.04855 -6.6795 -2.1641 0.772589 -7.02328 -2.26326 1.26376 -6.96709 -2.34498 1.24572 -6.96349 0.0274652 0.0227068 -5.30098 0.74675 0.517929 -5.7882 1.4653 1.01421 -6.27543 1.48463 1.02885 -6.29309 1.77038 1.21091 -6.65579 2.03154 1.28646 -7.02857 2.2378 1.35282 -7.3952 2.37974 1.4411 -7.80679 2.52584 1.53115 -8.25259 2.55048 1.61123 -8.65487 2.61056 1.79779 -9.03308 2.62046 2.00763 -9.46593 2.59941 2.18555 -9.90429 2.58793 2.37964 -10.3547 2.59238 2.54531 -10.7472 2.60671 2.75842 -11.2134 2.63305 2.93461 -11.6002 2.6243 3.15955 -11.9844 2.61812 3.30988 -12.2428 1.48463 1.02885 -6.29309 0.979893 1.78144 -6.716 0.769583 2.10438 -6.89358 1.77038 1.21091 -6.65579 1.52751 1.8816 -7.35664 1.51903 1.90979 -7.3855 2.03154 1.28646 -7.02857 2.60566 0.964635 -7.12969 2.2378 1.35282 -7.3952 2.51621 1.36937 -7.40604 0.0229818 0.0355726 -5.58881 0.912375 0.441173 -5.79968 1.73584 0.906747 -6.12394 1.76083 0.920203 -6.13366 2.18832 1.13066 -6.31538 2.58803 1.30908 -6.44539 2.94897 1.51937 -6.49245 3.45071 1.67042 -6.51069 3.88307 1.7937 -6.52449 4.27439 1.94648 -6.53762 4.69611 2.07669 -6.55067 5.17182 2.20877 -6.60321 5.60801 2.3893 -6.65611 5.98129 2.5544 -6.58394 6.41817 2.65573 -6.52696 6.89335 2.72945 -6.43621 7.27213 2.86825 -6.41874 7.66773 2.97429 -6.41919 7.98483 3.05926 -6.4172 1.76083 0.920203 -6.13366 2.08706 1.67478 -6.70304 2.15013 1.76519 -6.77865 2.18832 1.13066 -6.31538 2.80489 0.583108 -6.50242 2.58803 1.30908 -6.44539 2.85785 1.03523 -6.53074 2.94897 1.51937 -6.49245 2.95592 1.5202 -6.50909 0.0185453 0.0479248 -5.87702 -0.366352 0.882257 -6.27167 -0.781043 1.69168 -6.68744 -0.794293 1.71555 -6.69987 -0.990456 2.07129 -6.88561 -1.14485 2.40127 -7.17824 -1.25182 2.68901 -7.47448 -1.45697 2.92736 -7.8515 -1.6379 3.04212 -8.22813 -1.87382 3.2245 -8.5314 -2.1883 3.42539 -8.78161 -2.52175 3.54411 -9.04693 -2.85517 3.68994 -9.33181 -3.17391 3.8802 -9.58911 -3.44033 4.15572 -9.81025 -3.74227 4.42282 -10.0359 -4.01451 4.62555 -10.2746 -4.37536 4.78739 -10.5144 -4.50062 4.84017 -10.5979 -0.794293 1.71555 -6.69987 -0.935901 2.48454 -6.27914 -0.990456 2.07129 -6.88561 -1.41753 1.99188 -7.00676 -1.14485 2.40127 -7.17824 -1.17028 2.39311 -7.19774 0.00687596 0.037733 -6.19629 0.643147 -0.598678 -6.63234 1.19989 -1.35543 -6.97492 1.21663 -1.37786 -6.98573 1.47997 -1.69102 -7.14693 1.73303 -2.03762 -7.33376 2.02328 -2.37011 -7.55675 2.28505 -2.67114 -7.77366 2.48283 -2.99164 -7.98619 2.726 -3.29844 -8.08748 2.95151 -3.68409 -8.20279 3.14645 -4.01532 -8.30264 3.38618 -4.44011 -8.43865 3.66442 -4.80335 -8.58762 3.88106 -5.15265 -8.72447 4.13623 -5.49698 -8.9147 4.44363 -5.73619 -9.17218 4.66838 -5.96754 -9.41538 1.21663 -1.37786 -6.98573 1.20884 -1.64268 -6.61325 1.47997 -1.69102 -7.14693 1.56833 -1.68114 -7.14629 -0.00438286 0.030773 -6.5293 0.547963 0.487542 -7.22664 0.934584 0.916659 -8.04296 0.946167 0.92953 -8.06746 1.08385 1.13305 -8.45259 1.13243 1.34225 -8.85811 1.1857 1.56295 -9.27681 1.08996 1.82396 -9.6337 0.97789 2.07835 -9.9816 0.884605 2.31297 -10.2966 0.78637 2.58456 -10.7005 0.681846 2.80712 -11.0409 0.591697 3.141 -11.3591 0.489839 3.39502 -11.7053 0.403512 3.64904 -12.0891 0.266001 3.84427 -12.5018 0.21453 4.08274 -12.8766 0.103316 4.33375 -13.2647 0.0826654 4.38012 -13.3351 0.946167 0.92953 -8.06746 0.472201 1.64043 -8.58706 0.460925 1.6555 -8.59884 1.08385 1.13305 -8.45259 1.72018 1.11863 -8.59189 1.13243 1.34225 -8.85811 0.940582 1.32039 -9.05549 -0.0138056 0.0198268 -6.85369 -0.506761 0.807592 -7.22304 -0.592851 1.73147 -7.59591 -0.595484 1.75916 -7.60715 -0.635273 2.14971 -7.75621 -0.675661 2.58789 -7.92502 -0.660958 2.94673 -8.10443 -0.618903 3.28703 -8.30201 -0.568374 3.65418 -8.51517 -0.444352 4.01534 -8.74666 -0.313946 4.36186 -8.96424 -0.171394 4.70219 -9.16129 0.0283922 5.05667 -9.34852 0.21627 5.46086 -9.46721 0.32463 5.85918 -9.47397 0.479676 6.2625 -9.52304 0.697646 6.67246 -9.57188 1.0226 6.98893 -9.60438 1.06272 7.02692 -9.60667 -0.595484 1.75916 -7.60715 -0.709122 1.99448 -7.43253 0.0147636 0.0258964 -7.17216 -0.271116 -0.759783 -7.72078 -0.311774 -1.6973 -8.06632 -0.313449 -1.72517 -8.0773 -0.259522 -2.14142 -8.23494 -0.192483 -2.5774 -8.45362 -0.121466 -2.98572 -8.67776 -0.048347 -3.38816 -8.85525 0.0336666 -3.77286 -9.02602 0.146942 -4.18949 -9.20888 0.300409 -4.58792 -9.36494 0.505478 -4.95551 -9.46654 0.728166 -5.35714 -9.59464 1.05487 -5.69497 -9.8079 1.33817 -5.99407 -9.99013 1.58632 -6.29322 -10.2652 1.86936 -6.59085 -10.4147 2.17638 -6.83543 -10.5309 2.32379 -6.9787 -10.5649 -0.313449 -1.72517 -8.0773 -0.965733 -2.27321 -8.25101 -0.259522 -2.14142 -8.23494 0.101373 -2.3228 -7.91647 -0.192483 -2.5774 -8.45362 -0.255703 -2.61949 -8.57108 -0.00413213 0.0382085 -7.49312 0.520011 0.724912 -7.99682 0.743926 1.40683 -8.69314 0.750908 1.42703 -8.71419 0.840416 1.75917 -9.06688 0.891974 2.14832 -9.38126 0.916242 2.44742 -9.76295 0.935608 2.71245 -10.1014 0.921602 3.03377 -10.41 1.01359 3.3855 -10.7835 1.08219 3.70316 -11.1759 1.14146 3.98026 -11.513 1.19275 4.25618 -11.8508 1.07292 4.66633 -12.1249 0.979192 4.99377 -12.3749 0.908411 5.29035 -12.7461 0.896288 5.34951 -12.8196 0.750908 1.42703 -8.71419 0.89277 1.23012 -9.15011 0.840416 1.75917 -9.06688 0.879637 1.74649 -9.0968 -0.015518 0.0286367 -7.77157 0.00231384 0.97372 -8.09791 -0.0153481 1.93902 -8.35846 -0.0146152 1.96757 -8.36765 0.0511089 2.31701 -8.60653 0.105126 2.7174 -8.89834 0.120843 3.067 -9.1823 0.163466 3.36725 -9.55018 0.146402 3.69387 -9.84093 0.0985879 4.02583 -10.1365 0.114792 4.36045 -10.4709 0.128747 4.65277 -10.7602 0.245731 4.99394 -11.0933 0.389002 5.26732 -11.3915 0.46053 5.54254 -11.719 0.536093 5.80144 -12.0446 -0.0146152 1.96757 -8.36765 0.0468573 2.01849 -8.32277 -0.0129763 0.0202522 -8.06785 -0.270866 -0.846194 -8.49536 -0.602184 -1.73902 -8.80047 -0.61224 -1.76569 -8.80983 -0.720493 -2.123 -8.98477 -0.788627 -2.42899 -9.28088 -0.915366 -2.75494 -9.63668 -1.013 -3.06514 -9.91864 -1.14667 -3.45353 -10.1103 -1.35916 -3.79574 -10.3352 -1.57076 -4.04099 -10.6022 -1.85308 -4.31624 -10.9126 -2.01863 -4.58517 -11.2567 -2.15805 -4.84097 -11.5456 -2.30782 -5.10048 -11.8332 -2.40157 -5.38531 -12.1245 -2.49031 -5.65403 -12.3986 -0.0132493 0.0189597 -8.39655 0.664842 -0.632151 -8.7375 1.19153 -1.3316 -9.22059 1.20724 -1.35177 -9.23629 1.41953 -1.69488 -9.46813 1.57706 -1.99989 -9.75449 1.63573 -2.31905 -10.0516 1.61149 -2.63165 -10.4057 1.56498 -2.89931 -10.7479 1.42348 -3.10376 -11.0868 1.25886 -3.31504 -11.4574 1.22843 -3.53536 -11.8828 1.19888 -3.72744 -12.2639 1.1721 -3.93541 -12.6931 1.1722 -4.23518 -13.1183 1.14188 -4.46522 -13.524 1.13589 -4.51788 -13.6179 1.20724 -1.35177 -9.23629 1.5148 -1.55421 -9.03672 1.41953 -1.69488 -9.46813 1.41878 -1.69527 -9.47013 -0.0190332 0.0194581 -8.70297 0.798233 0.336633 -9.18409 1.61613 0.595654 -9.69786 1.641 0.602929 -9.71298 2.00836 0.694176 -9.96558 2.35501 0.80803 -10.2159 2.68013 0.941782 -10.4579 3.03816 1.04627 -10.681 3.43431 1.08291 -10.9582 3.77255 1.07632 -11.2889 4.09903 1.19561 -11.5951 4.40535 1.28877 -11.9092 4.7009 1.37833 -12.2121 4.98003 1.286 -12.5482 5.16477 1.12443 -12.8702 5.34307 0.987093 -13.2802 5.35824 0.976838 -13.3138 1.641 0.602929 -9.71298 1.79212 0.39756 -9.78774 -0.0264056 0.0172117 -9.00872 -0.325421 0.859463 -9.45728 -0.475439 1.76232 -9.86018 -0.47936 1.78981 -9.87156 -0.471877 2.18873 -10.04 -0.36325 2.62667 -10.1939 -0.249411 3.03124 -10.4104 -0.125491 3.42657 -10.623 0.0515892 3.7446 -10.9338 0.26979 4.07188 -11.1798 0.46854 4.40441 -11.3612 0.66986 4.72537 -11.5302 0.935448 5.00832 -11.8075 1.1947 5.25977 -12.0728 1.47738 5.44492 -12.3569 1.76785 5.63682 -12.6449 1.79369 5.65254 -12.672 -0.47936 1.78981 -9.87156 -0.499951 1.83922 -9.82982 -0.0262428 -0.00280252 -9.28542 -0.909238 -0.0382467 -9.75346 -1.43628 -0.397815 -10.5235 -1.45253 -0.408704 -10.5462 -1.68707 -0.584023 -10.9091 -1.91036 -0.74549 -11.2439 -2.16756 -0.95287 -11.5093 -2.39618 -1.07605 -11.847 -2.54981 -1.24309 -12.2625 -2.78953 -1.34264 -12.5766 -3.10984 -1.50939 -12.9228 -3.49184 -1.65068 -13.1539 -3.8148 -1.76649 -13.3426 -4.14032 -1.86886 -13.529 -4.30927 -1.9178 -13.6463 -0.0219648 -0.0260692 -9.62122 -0.653356 0.269197 -10.3383 -1.18567 0.686805 -11.0746 -1.20215 0.699764 -11.0961 -1.47588 0.905601 -11.4061 -1.71964 1.12388 -11.736 -1.94235 1.35531 -12.0138 -2.23292 1.50281 -12.2861 -2.50894 1.55791 -12.5787 -2.81312 1.49551 -12.9156 -3.12294 1.37825 -13.2827 -3.34441 1.32755 -13.6333 -3.57357 1.24403 -14.0339 -3.80353 1.21578 -14.4464 -3.94585 1.18259 -14.8573 -3.9693 1.18598 -14.9577 -0.0133776 -0.0605788 -9.90992 -0.0943659 -0.980891 -10.2926 -0.284547 -1.93338 -10.5305 -0.288567 -1.96268 -10.5356 -0.30894 -2.43489 -10.6574 -0.371552 -2.82597 -10.7678 -0.334303 -3.23224 -11.0419 -0.313602 -3.64691 -11.2336 -0.295014 -4.03671 -11.4177 -0.272217 -4.44186 -11.6068 -0.188191 -4.84457 -11.769 -0.169201 -5.22356 -11.93 -0.15093 -5.63088 -12.099 -0.115885 -6.11078 -12.1737 -0.0956002 -6.47877 -12.1601 -0.0118089 -0.046418 -10.2166 -0.698731 0.385614 -10.8009 -1.40381 0.788411 -11.3846 -1.42348 0.80112 -11.4033 -1.76828 0.976385 -11.7023 -2.05968 1.12375 -11.9555 -2.31934 1.22751 -12.3019 -2.62623 1.29076 -12.6053 -2.91444 1.33695 -12.865 -3.16889 1.36716 -13.1927 -3.43889 1.40594 -13.5405 -3.73099 1.45777 -13.9136 -4.05256 1.46667 -14.1934 -4.27724 1.41611 -14.5894 -4.48066 1.37081 -14.9725 -0.003018 -0.0483888 -10.542 -0.109635 0.745402 -11.1408 -0.102088 1.55225 -11.7315 -0.10182 1.57627 -11.7495 -0.0754349 1.91079 -12.0098 -0.0418013 2.23811 -12.2709 0.0445205 2.58329 -12.5113 0.150677 2.90017 -12.8214 0.232371 3.18207 -13.1086 0.32703 3.46425 -13.3546 0.369784 3.7395 -13.6389 0.519911 4.05934 -13.9194 0.688838 4.35936 -14.2733 0.832456 4.63119 -14.6437 0.86167 4.74448 -14.7861 -0.00649313 -0.0446906 -10.8593 0.666318 -0.568369 -11.3819 1.35288 -0.895412 -12.0312 1.3737 -0.905015 -12.0506 1.63585 -1.11721 -12.4072 1.9846 -1.2533 -12.6543 2.27178 -1.39807 -12.9024 2.58129 -1.60914 -13.1935 2.86519 -1.8188 -13.5087 3.16938 -1.97825 -13.8147 3.5785 -2.11178 -14.0111 4.00758 -2.25813 -14.2059 4.27741 -2.36352 -14.3408 -0.00237709 -0.0479188 -11.1407 0.260232 -0.873342 -11.6404 0.825429 -1.51022 -12.1647 0.843758 -1.52843 -12.18 1.1079 -1.87285 -12.4338 1.26692 -2.24875 -12.6576 1.41504 -2.61706 -12.8297 1.58956 -3.05063 -13.03 1.73178 -3.41201 -13.2115 1.99843 -3.74929 -13.3843 2.25422 -4.07269 -13.5417 2.50549 -4.3934 -13.7009 2.6602 -4.64949 -13.8099 -0.00479019 -0.0442155 -11.4515 0.617861 -0.40028 -12.1483 1.2123 -0.784787 -12.8546 1.23006 -0.796322 -12.8758 1.45799 -0.94776 -13.1875 1.69837 -1.1147 -13.5245 1.99629 -1.20659 -13.872 2.26036 -1.2941 -14.1856 2.57575 -1.38128 -14.508 2.90153 -1.4735 -14.8404 3.20548 -1.55998 -15.1737 3.5301 -1.64378 -15.4979 3.87458 -1.77685 -15.7344 3.91413 -1.79348 -15.7621 -0.0127827 -0.0409819 -11.7817 -0.628283 0.613056 -12.2214 -1.24539 1.23478 -12.7037 -1.26474 1.25321 -12.7174 -1.52059 1.57272 -12.8716 -1.81322 1.89743 -13.0429 -2.09786 2.24113 -13.216 -2.4134 2.54192 -13.4172 -2.72293 2.75964 -13.6702 -2.99656 3.01604 -13.8906 -3.26828 3.20931 -14.1754 -3.54439 3.41911 -14.5046 -3.77639 3.52255 -14.9049 -3.81274 3.5373 -14.966 -0.0200739 -0.0440737 -12.0923 -0.764331 -0.699535 -12.2205 -1.56054 -1.29463 -12.3296 -1.58429 -1.31259 -12.3333 -2.00788 -1.45523 -12.4586 -2.44223 -1.38256 -12.6687 -2.85561 -1.37267 -12.8545 -3.24791 -1.36118 -13.0269 -3.64774 -1.37601 -13.2258 -3.97999 -1.39814 -13.3905 -4.36917 -1.44093 -13.5788 -4.66065 -1.53628 -13.6625 -0.0223583 -0.0533523 -12.4308 0.546901 -0.639352 -13.0075 0.850579 -1.45104 -13.5064 0.857299 -1.47597 -13.5217 0.989802 -1.89391 -13.7535 1.15697 -2.17729 -14.0057 1.26545 -2.51615 -14.2596 1.34966 -2.86558 -14.4477 1.50717 -3.23623 -14.6511 1.63253 -3.64876 -14.898 1.73127 -3.96483 -15.0979 -0.0183105 -0.0362021 -12.7237 0.540366 0.473861 -13.3777 1.1381 0.988366 -13.9925 1.15613 1.00364 -14.011 1.43034 1.24564 -14.294 1.72749 1.45082 -14.4995 2.04853 1.63377 -14.7911 2.24117 1.85936 -15.1015 2.41646 2.12814 -15.4378 2.54463 2.31228 -15.8132 2.63471 2.41003 -16.0781 -0.02958 -0.0288595 -13.0316 0.887314 -0.0636407 -13.4292 1.81349 0.0127435 -13.7985 1.84173 0.0164519 -13.808 2.277 0.073623 -13.9338 2.66651 0.0263297 -14.0839 3.10602 -0.0395499 -14.2365 3.51013 -0.0941467 -14.3815 3.9048 -0.257938 -14.578 4.28665 -0.425353 -14.7552 4.42295 -0.470328 -14.8264 -0.0283272 -0.0253832 -13.3203 0.691172 0.476218 -13.8007 1.27762 1.10472 -14.3116 1.29604 1.12225 -14.3275 1.54401 1.38218 -14.6257 1.77658 1.61531 -14.897 2.02168 1.86315 -15.183 2.18811 2.04488 -15.5361 2.36908 2.24255 -15.8766 2.54763 2.43486 -16.2067 2.73496 2.61061 -16.5498 -0.0328387 -0.021482 -13.6278 0.571125 0.577164 -14.154 1.1365 1.20952 -14.6836 1.1529 1.23111 -14.6964 1.3849 1.5488 -14.8901 1.61723 1.86882 -15.0845 1.91505 2.22044 -15.1969 2.23438 2.51865 -15.3063 2.54595 2.79034 -15.5039 2.84227 3.06543 -15.7031 -0.0375668 -0.017429 -13.9445 -0.721831 -0.501139 -14.4902 -1.08294 -1.10479 -15.201 -1.09367 -1.12306 -15.2223 -1.26689 -1.40282 -15.5665 -1.40783 -1.71985 -15.8847 -1.53538 -1.99756 -16.1746 -1.60943 -2.33439 -16.4827 -1.75578 -2.64788 -16.8185 -1.77184 -2.68266 -16.8551 -0.0258967 -0.0198976 -14.2576 -0.758621 0.466325 -14.7337 -1.6101 0.858575 -15.0818 -1.63512 0.871976 -15.0915 -2.0009 1.15103 -15.2247 -2.30007 1.4124 -15.3403 -2.59589 1.71268 -15.5254 -2.78224 2.08022 -15.7678 -2.83429 2.42922 -15.9829 -2.83732 2.44702 -15.9934 -0.0253069 -0.0195792 -14.5673 -0.0592914 0.839024 -15.0788 -0.0946342 1.69858 -15.5887 -0.0962736 1.72548 -15.6018 -0.118612 2.09391 -15.7822 -0.147098 2.481 -15.9983 -0.277962 2.88951 -16.2422 -0.557367 3.19439 -16.3854 -0.795969 3.46847 -16.5164 -0.0245444 -0.0192678 -14.8882 -0.94384 0.374238 -14.8812 -1.84502 0.479699 -14.4608 -1.87237 0.483372 -14.449 -2.23844 0.491555 -14.2819 -2.68631 0.504655 -14.1275 -3.12039 0.431894 -14.0994 -3.57991 0.31441 -14.0407 -3.66406 0.289488 -14.0301 -0.0213008 -0.0131886 -15.1822 0.506361 -0.599322 -15.7971 0.782264 -1.22354 -16.528 0.790458 -1.24227 -16.5499 0.763404 -1.48433 -16.8932 0.74418 -1.73298 -17.235 0.678378 -2.01178 -17.5869 0.613064 -2.18295 -17.9725 0.608485 -2.19663 -18.0054 -0.0179016 -0.00704469 -15.5098 0.523386 0.445205 -16.2187 0.955823 1.139 -16.7946 0.968764 1.1599 -16.8118 1.16604 1.505 -17.0702 1.2172 1.88309 -17.3374 1.26101 2.10181 -17.509 -0.0156774 -0.00300771 -15.8059 -0.879172 0.0634257 -16.3059 -1.7412 0.122117 -16.8093 -1.76677 0.123616 -16.8249 -2.11706 0.136875 -17.0447 -2.45821 0.179113 -17.2861 -2.79848 0.193122 -17.4876 -2.85556 0.192056 -17.5269 -0.0172429 0.00031403 -16.1398 0.782159 -0.536315 -16.41 1.57145 -1.10813 -16.6337 1.59511 -1.12486 -16.6414 1.89274 -1.38997 -16.7516 2.20235 -1.70415 -16.8936 2.29307 -1.789 -16.9425 -0.0171183 -0.0290609 -16.4615 -0.194037 0.801778 -16.9892 -0.517597 1.55835 -17.5574 -0.527282 1.58196 -17.5732 -0.629002 1.95268 -17.7935 -0.713713 2.20566 -17.9397 -0.0318657 -0.0672956 -16.7625 -0.991788 0.206279 -16.8234 -1.74603 0.490588 -17.4153 -1.76882 0.499044 -17.4328 -2.09302 0.762698 -17.5139 -2.10865 0.775497 -17.5178 -0.0144786 -0.0908345 -17.0758 0.861367 0.113933 -17.5128 1.74443 0.401906 -17.8833 1.77094 0.410612 -17.8943 1.93251 0.463683 -17.9616 -0.00105105 -0.122315 -17.3847 0.87749 -0.148861 -17.8616 1.76698 -0.231198 -18.3111 1.779 -0.232208 -18.3174 0.0039453 -0.128189 -17.6789 -0.903997 -0.246291 -18.081 -1.73296 -0.34096 -18.4616 -0.00624868 -0.11865 -17.9843 0.84136 -0.295138 -18.4847 1.2102 -0.411057 -18.8077 -0.0254004 -0.123424 -18.307 -0.486368 -0.888193 -18.7571 -0.596334 -1.03789 -18.8706 -0.031182 -0.129913 -18.6123 -0.262326 0.791845 -18.918 -0.0261654 -0.127604 -18.9248 -0.199025 -0.827605 -19.0974 -0.0180593 -0.137064 -19.2568 0.146726 -0.478735 -19.4704 -0.01244 -0.155084 -19.5874 0.00653305 -0.0520198 -19.6425 
</DataArray>
</Points>
<Lines>
<DataArray type="Int32" Name="connectivity" NumberOfComponents="1" format="ascii" >