<?xml version="1.0"?><VTKFile type="PolyData" version="0.1" byte_order="LittleEndian">
<PolyData>
<Piece NumberOfLines="26" NumberOfPoints="120">
<PointData Scalars=" PointData">
<DataArray type="Float32" Name="time" NumberOfComponents="1" format="ascii" >
0 0.600077 0.792047 0.99489 1.1866 1.40803 1.6262 1.83047 2.03819 2.2498 2.4729 2.6786 2.87985 3.1004 3.31296 3.51505 3.73031 3.93494 4.1672 4.39002 4.61531 4.8682 5.11502 5.36511 5.58748 5.84277 6 0.600077 2.19107 3.85736 4.56713 5.41275 6 0.792047 2.38508 4.05179 4.96562 5.75774 6 0.99489 2.52956 4.13573 4.57899 5.39392 6 1.1866 2.83915 4.57166 5.22085 6 1.40803 3.15871 4.99255 5.04762 5.98328 6 1.6262 3.32894 5.1139 5.34268 6 1.83047 3.52989 5.31021 6 2.03819 3.60826 5.25409 5.62404 6 2.2498 3.89205 5.61056 5.84124 6 2.4729 4.09229 5.78771 6 2.6786 4.14005 5.67131 6 2.87985 4.37289 5.9384 6 3.1004 4.63142 6 3.31296 4.8458 6 3.51505 5.05583 6 3.73031 5.23246 6 3.93494 5.44865 6 4.1672 5.79716 6 4.39002 5.90377 6 4.61531 6 4.8682 6 5.11502 6 5.36511 6 5.58748 6 5.84277 6 
</DataArray>

</PointData>
<CellData Scalars=" CellData">
<DataArray type="Float32" Name="radius" NumberOfComponents="1" format="ascii" >
0.101845 0.048552 0.0546828 0.0515751 0.0369336 0.0532678 0.0461663 0.0569531 0.050304 0.0509722 0.0464286 0.0454205 0.0540131 0.0553343 0.0512713 0.0575158 0.0545462 0.052304 0.0588516 0.0578699 0.0461398 0.0564867 0.0412877 0.0487257 0.0508509 0.0476603 
</DataArray>
<DataArray type="Float32" Name="subType" NumberOfComponents="1" format="ascii" >
1 2 2 2 2 2 2 2 2 2 2 2 2 2 2 2 2 2 2 2 2 2 2 2 2 2 
</DataArray>
<DataArray type="Float32" Name="creationTime" NumberOfComponents="1" format="ascii" >
0 0.600077 0.792047 0.99489 1.1866 1.40803 1.6262 1.83047 2.03819 2.2498 2.4729 2.6786 2.87985 3.1004 3.31296 3.51505 3.73031 3.93494 4.1672 4.39002 4.61531 4.8682 5.11502 5.36511 5.58748 5.84277 
</DataArray>

</CellData>
<Points>
<DataArray type="Float32" Name="Coordinates" NumberOfComponents="3" format="ascii" >
0 0 -3 0.00530778 0.00109532 -3.95549 0.0136314 0.00495492 -4.2569 0.0158626 0.0177551 -4.57311 -0.00170164 0.00623236 -4.86946 -0.0778017 -0.033924 -5.19916 -0.170325 -0.109553 -5.51018 -0.251388 -0.186159 -5.7991 -0.346961 -0.280256 -6.08162 -0.451848 -0.411607 -6.34957 -0.56199 -0.525945 -6.64 -0.62981 -0.590205 -6.92819 -0.708164 -0.640011 -7.20751 -0.693567 -0.765267 -7.50186 -0.688751 -0.879906 -7.78593 -0.739531 -1.00671 -8.04084 -0.788277 -1.12252 -8.31969 -0.862406 -1.2318 -8.57639 -0.915705 -1.34642 -8.87601 -0.959696 -1.42336 -9.17261 -1.00456 -1.50835 -9.46797 -1.06598 -1.58219 -9.80016 -1.11286 -1.6732 -10.1187 -1.23537 -1.80838 -10.4011 -1.33571 -1.93475 -10.6499 -1.45279 -2.04264 -10.9476 -1.51505 -2.10505 -11.1343 0.00530778 0.00109532 -3.95549 0.592134 -0.0593864 -4.76294 1.32732 -0.0829838 -5.44039 1.65615 -0.103694 -5.68741 2.04458 -0.133495 -5.96765 2.31042 -0.181382 -6.15115 0.0136314 0.00495492 -4.2569 -0.576566 0.604632 -4.79732 -1.12224 1.1339 -5.44703 -1.47499 1.37555 -5.75844 -1.77705 1.59168 -6.00855 -1.87729 1.63928 -6.08543 0.0158626 0.0177551 -4.57311 0.873992 0.0360655 -5.08622 1.67218 0.151211 -5.67753 1.91783 0.171477 -5.78241 2.36344 0.200032 -5.96808 2.64325 0.222254 -6.181 -0.00170164 0.00623236 -4.86946 0.604244 0.783226 -5.04008 1.13303 1.45427 -5.55977 1.32213 1.70184 -5.74498 1.53923 1.98891 -5.97358 -0.0778017 -0.033924 -5.19916 -0.939905 -0.104038 -5.70102 -1.74699 -0.0785056 -6.2909 -1.76967 -0.077151 -6.30939 -2.14222 -0.0238663 -6.62555 -2.14893 -0.0228697 -6.63096 -0.170325 -0.109553 -5.51018 0.291815 -0.604276 -6.24616 0.793871 -1.02498 -7.00177 0.866216 -1.07396 -7.09077 1.07041 -1.19416 -7.35386 -0.251388 -0.186159 -5.7991 -0.621543 -1.1148 -5.82374 -1.06588 -2.00897 -5.76873 -1.2324 -2.34416 -5.74809 -0.346961 -0.280256 -6.08162 -1.21671 -0.50067 -6.52315 -2.11721 -0.928197 -6.44364 -2.32166 -1.00444 -6.44585 -2.53413 -1.05511 -6.46593 -0.451848 -0.411607 -6.34957 -1.43775 -0.359526 -6.50857 -2.43019 -0.464846 -6.57155 -2.55974 -0.473413 -6.58697 -2.64813 -0.476913 -6.60059 -0.56199 -0.525945 -6.64 -1.24991 0.125259 -6.96047 -1.82816 0.884956 -7.25795 -1.8988 0.97875 -7.29082 -0.62981 -0.590205 -6.92819 -0.200842 -1.25631 -7.53834 0.34469 -1.81303 -8.1648 0.489962 -1.93255 -8.25472 -0.708164 -0.640011 -7.20751 -0.380827 0.0113451 -7.89204 -0.112284 0.394641 -8.77576 -0.103031 0.4093 -8.80999 -0.693567 -0.765267 -7.50186 -1.33321 -1.51278 -7.68097 -1.87718 -2.14262 -7.88161 -0.688751 -0.879906 -7.78593 -1.57988 -0.985521 -8.22721 -2.20981 -1.05454 -8.57715 -0.739531 -1.00671 -8.04084 -1.15013 -0.438166 -8.75369 -1.49578 -0.0690737 -9.05954 -0.788277 -1.12252 -8.31969 -1.24783 -0.932555 -9.18729 -1.47984 -1.14545 -9.56799 -0.862406 -1.2318 -8.57639 -0.667887 -1.96539 -9.22755 -0.562866 -2.22217 -9.44564 -0.915705 -1.34642 -8.87601 -0.604997 -2.24357 -9.18998 -0.572644 -2.3539 -9.22878 -0.959696 -1.42336 -9.17261 -1.84022 -1.11431 -9.53203 -1.89358 -1.09742 -9.55872 -1.00456 -1.50835 -9.46797 -0.542501 -2.1152 -9.83858 -1.06598 -1.58219 -9.80016 -0.729021 -1.25455 -10.3421 -1.11286 -1.6732 -10.1187 -0.733632 -1.98725 -10.3412 -1.23537 -1.80838 -10.4011 -1.10045 -2.19489 -10.4047 -1.33571 -1.93475 -10.6499 -1.59782 -1.91586 -10.7142 -1.45279 -2.04264 -10.9476 -1.47206 -1.97624 -11.0148 
</DataArray>
</Points>
<Lines>
<DataArray type="Int32" Name="connectivity" NumberOfComponents="1" format="ascii" >
0 1 2 3 4 5 6 7 8 9 10 11 12 13 14 15 16 17 18 19 20 21 22 23 24 25 26 27 28 29 30 31 32 33 34 35 36 37 38 39 40 41 42 43 44 45 46 47 48 49 50 51 52 53 54 55 56 57 58 59 60 61 62 63 64 65 66 67 68 69 70 71 72 73 74 75 76 77 78 79 80 81 82 83 84 85 86 87 88 89 90 91 92 93 94 95 96 97 98 99 100 101 102 103 104 105 106 107 108 109 110 111 112 113 114 115 116 117 118 119 
</DataArray>
<DataArray type="Int32" Name="offsets" NumberOfComponents="1" format="ascii" >
27 33 39 45 50 56 61 65 70 75 79 83 87 90 93 96 99 102 105 108 110 112 114 116 118 120 
</DataArray>

</Lines>
</Piece>
</PolyData>
</VTKFile>
