<?xml version="1.0"?><VTKFile type="PolyData" version="0.1" byte_order="LittleEndian">
<PolyData>
<Piece NumberOfLines="19" NumberOfPoints="360">
<PointData Scalars=" PointData">
<DataArray type="Float32" Name="time" NumberOfComponents="1" format="ascii" >
0 0.140992 0.28228 0.423865 0.565748 0.70793 0.850412 0.993197 1.13628 1.27968 1.42337 1.56738 1.71169 1.85631 2.00125 2.14649 2.29205 2.43793 2.58412 2.73062 2.87745 3.0246 3.17207 3.31986 3.46798 3.61642 3.7652 3.9143 4.06373 4.21349 4.36359 4.51402 4.66479 4.81589 4.96734 5.11913 5.27126 5.42373 5.57655 5.72972 5.88323 6.0371 6.19131 6.34588 6.50081 6.65609 6.81174 6.96774 7.1241 7.28083 7.43792 7.59538 7.75321 7.91141 8.06998 8.22892 8.38824 8.54794 8.70802 8.86848 9.02932 9.19054 9.35216 9.51416 9.67655 9.83933 10.0025 10.1661 10.3301 10.4944 10.6592 10.8244 10.99 11.1559 11.3223 11.4892 11.6564 11.824 11.9921 12.1606 12.3295 12.4988 12.6685 12.8387 13.0093 13.1804 13.3519 13.5238 13.6961 13.8689 14.0422 14.2159 14.39 14.5646 14.7396 14.9151 15 6.59394 6.92832 7.26481 7.60343 7.94422 8.2872 8.6324 8.97985 9.32958 9.68162 10.036 10.3927 10.7519 11.1135 11.4775 11.8441 12.2132 12.5848 12.9591 13.336 13.7156 14.0979 14.483 14.8709 15 7.21809 7.55247 7.88896 8.22759 8.56838 8.91136 9.25656 9.60401 9.95374 10.3058 10.6601 11.0169 11.376 11.7376 12.1017 12.4682 12.8373 13.209 13.5833 13.9602 14.3398 14.7221 15 7.84808 8.18246 8.51895 8.85758 9.19837 9.54135 9.88655 10.234 10.5837 10.9358 11.2901 11.6469 12.006 12.3676 12.7317 13.0982 13.4673 13.839 14.2132 14.5902 14.9698 15 8.48402 8.8184 9.15489 9.49351 9.8343 10.1773 10.5225 10.8699 11.2197 11.5717 11.9261 12.2828 12.642 13.0036 13.3676 13.7342 14.1032 14.4749 14.8492 15 9.12601 9.46039 9.79688 10.1355 10.4763 10.8193 11.1645 11.5119 11.8617 12.2137 12.5681 12.9248 13.284 13.6455 14.0096 14.3761 14.7452 15 9.77417 10.1086 10.445 10.7837 11.1245 11.4674 11.8126 12.1601 12.5098 12.8619 13.2162 13.573 13.9321 14.2937 14.6578 15 10.4286 10.763 11.0995 11.4381 11.7789 12.1219 12.4671 12.8145 13.1643 13.5163 13.8707 14.2274 14.5866 14.9482 15 11.0895 11.4239 11.7604 12.099 12.4398 12.7828 13.128 13.4754 13.8251 14.1772 14.5316 14.8883 15 11.7569 12.0913 12.4278 12.7664 13.1072 13.4502 13.7954 14.1428 14.4926 14.8446 15 12.431 12.7654 13.1019 13.4405 13.7813 14.1243 14.4695 14.8169 15 13.1119 13.4463 13.7828 14.1214 14.4622 14.8052 15 13.7998 14.1341 14.4706 14.8092 15 14.4947 14.8291 15 7 7.14099 7.28228 7.42387 7.56575 7.70793 7.85041 7.9932 8.13628 8.27968 8.42337 8.56738 8.71169 8.85631 9.00125 9.14649 9.29205 9.43793 9.58412 9.73062 9.87745 10.0246 10.1721 10.3199 10.468 10.6164 10.7652 10.9143 11.0637 11.2135 11.3636 11.514 11.6648 11.8159 11.9673 12.1191 12.2713 12.4237 12.5765 12.7297 12.8832 13.0371 13.1913 13.3459 13.5008 13.6561 13.8117 13.9677 14.1241 14.2808 14.4379 14.5954 14.7532 14.9114 15 13.5939 13.9283 14.2648 14.6034 14.9442 15 14.2181 14.5525 14.889 15 14.8481 15 14 14.141 14.2823 14.4239 14.5657 14.7079 14.8504 14.9932 15 
</DataArray>

</PointData>
<CellData Scalars=" CellData">
<DataArray type="Float32" Name="radius" NumberOfComponents="1" format="ascii" >
0.13 0.05 0.05 0.05 0.05 0.05 0.05 0.05 0.05 0.05 0.05 0.05 0.05 0.05 0.13 0.05 0.05 0.05 0.13 
</DataArray>
<DataArray type="Float32" Name="subType" NumberOfComponents="1" format="ascii" >
1 2 2 2 2 2 2 2 2 2 2 2 2 2 4 2 2 2 4 
</DataArray>
<DataArray type="Float32" Name="creationTime" NumberOfComponents="1" format="ascii" >
0 6.59394 7.21809 7.84808 8.48402 9.12601 9.77417 10.4286 11.0895 11.7569 12.431 13.1119 13.7998 14.4947 7 13.5939 14.2181 14.8481 14 
</DataArray>

</CellData>
<Points>
<DataArray type="Float32" Name="Coordinates" NumberOfComponents="3" format="ascii" >
0 0 -1.2 0.372356 0.221764 -1.44934 0.736594 0.452865 -1.70217 1.10361 0.674176 -1.9597 1.46118 0.90565 -2.22154 1.78452 1.16765 -2.49869 2.09955 1.43245 -2.78265 2.41298 1.69557 -3.06994 2.68006 1.96481 -3.39579 2.91448 2.17664 -3.78331 3.12607 2.37242 -4.19185 3.28576 2.584 -4.61579 3.43412 2.7922 -5.04549 3.57292 3.01077 -5.47323 3.71495 3.1876 -5.91883 3.85464 3.34628 -6.37194 4.02364 3.52923 -6.80549 4.24071 3.7133 -7.21659 4.44064 3.93145 -7.61962 4.59857 4.13954 -8.04595 4.75904 4.34638 -8.47194 4.90871 4.51344 -8.91881 5.06189 4.68087 -9.36435 5.21307 4.84765 -9.81081 5.32527 5.04207 -10.2576 5.42764 5.22664 -10.7109 5.46365 5.39061 -11.1818 5.51121 5.54932 -11.6536 5.55188 5.70652 -12.1265 5.61401 5.87287 -12.5939 5.66154 6.02934 -13.0664 5.70348 6.15382 -13.5488 5.75051 6.27705 -14.0311 5.80211 6.36354 -14.5209 5.86889 6.43083 -15.0118 5.93037 6.48387 -15.5052 5.9841 6.53891 -15.9992 6.00519 6.53756 -16.4988 5.97859 6.50142 -16.9967 5.9918 6.43909 -17.4927 6.02202 6.34853 -17.9835 6.0529 6.26518 -18.4755 6.08065 6.18345 -18.968 6.13287 6.08787 -19.456 6.17818 6.01856 -19.9491 6.22695 5.94774 -20.4416 6.22931 5.92044 -20.9409 6.23225 5.89333 -21.4401 6.25719 5.88452 -21.9394 6.25663 5.87761 -22.4394 6.23918 5.84278 -22.9379 6.25451 5.81628 -23.4369 6.24641 5.82555 -23.9368 6.17086 5.84489 -24.4307 6.09006 5.90019 -24.921 5.9607 5.96927 -25.399 5.82423 6.03824 -25.875 5.73407 6.15454 -26.3529 5.64777 6.2912 -26.8261 5.57313 6.39157 -27.3102 5.51799 6.49211 -27.7968 5.45428 6.5971 -28.2815 5.3608 6.66995 -28.7673 5.27258 6.75605 -29.2518 5.17197 6.85487 -29.7315 5.0751 6.94265 -30.2141 5.03774 7.06454 -30.6976 5.01585 7.18377 -31.1827 4.98538 7.30823 -31.666 4.94937 7.39829 -32.1565 4.88556 7.45085 -32.6496 4.80735 7.51298 -33.1395 4.74682 7.56564 -33.6331 4.72973 7.63338 -34.1282 4.70937 7.68839 -34.6247 4.69721 7.73717 -35.1222 4.6728 7.79302 -35.6184 4.62901 7.81697 -36.1159 4.59953 7.84853 -36.6141 4.59584 7.87512 -37.1134 4.53963 7.88067 -37.6102 4.47514 7.84673 -38.1048 4.39626 7.81438 -38.5975 4.31741 7.78204 -39.0902 4.26166 7.72434 -39.5837 4.22629 7.69696 -40.0817 4.20781 7.63172 -40.5771 4.16694 7.57665 -41.0723 4.09295 7.51669 -41.5632 3.98509 7.46999 -42.0492 3.85547 7.44082 -42.5312 3.78686 7.42457 -43.0262 3.72495 7.4232 -43.5224 3.68436 7.4276 -44.0207 3.64549 7.42962 -44.5192 3.60435 7.43149 -45.0175 3.57506 7.42719 -45.257 1.46118 0.90565 -2.22154 1.80085 0.978824 -1.862 2.13757 1.05317 -1.49993 2.4723 1.105 -1.13214 2.80247 1.16094 -0.760846 3.11714 1.26159 -0.385538 3.4327 1.36021 -0.0104478 3.76335 1.44027 0.355973 4.09 1.5245 0.725025 4.42336 1.65796 1.07296 4.79645 1.81585 1.36601 5.16445 1.96287 1.6709 5.53038 2.10934 1.97854 5.88663 2.24139 2.30358 6.23567 2.37604 2.6353 6.57885 2.51939 2.96949 6.92842 2.68131 3.28821 7.2847 2.82764 3.60704 7.63726 2.99582 3.91915 7.98991 3.16416 4.23108 8.34211 3.33445 4.54246 8.69332 3.51399 4.84974 9.02305 3.69996 5.17638 9.34813 3.88322 5.50915 9.45615 3.94606 5.61784 2.68006 1.96481 -3.39579 2.59014 2.44058 -3.27105 2.49904 2.91768 -3.15241 2.40805 3.39476 -3.03361 2.33081 3.87505 -2.91805 2.24604 4.34186 -2.76025 2.15098 4.80742 -2.60463 2.1281 5.29407 -2.49216 2.09548 5.77836 -2.37215 2.05247 6.26232 -2.25412 2.03745 6.75213 -2.15482 2.03466 7.23922 -2.04195 2.0494 7.73062 -1.95081 2.06336 8.21863 -1.84286 2.08223 8.70518 -1.72923 1.99676 9.18905 -1.63669 1.9303 9.67899 -1.56223 1.85967 10.1681 -1.48601 1.79129 10.6518 -1.37964 1.74671 11.1373 -1.26869 1.69395 11.6199 -1.1489 1.63091 12.0941 -1.00356 1.58148 12.4313 -0.883734 3.43412 2.7922 -5.04549 3.63847 3.18215 -4.80847 3.81694 3.58941 -4.57979 3.99567 3.99658 -4.35118 4.11655 4.45155 -4.18267 4.24243 4.89786 -3.9957 4.45909 5.28357 -3.76271 4.6731 5.67816 -3.54248 4.85238 6.10692 -3.35803 5.01628 6.55062 -3.19595 5.15424 7.01337 -3.06623 5.2923 7.47627 -2.93713 5.48839 7.92369 -2.83053 5.68453 8.37108 -2.72393 5.89141 8.81173 -2.60976 6.10761 9.24781 -2.49533 6.26175 9.70029 -2.34871 6.40197 10.1494 -2.17955 6.55739 10.6045 -2.04256 6.70757 11.0551 -1.88643 6.87924 11.4922 -1.71475 6.89292 11.5268 -1.70096 4.02364 3.52923 -6.80549 4.21404 3.90833 -6.54087 4.36023 4.2889 -6.25139 4.53731 4.67173 -5.9829 4.70323 5.05835 -5.71273 4.86608 5.4433 -5.43833 5.03667 5.83939 -5.18533 5.23876 6.24643 -4.97682 5.43338 6.66234 -4.77897 5.62922 7.07933 -4.58464 5.78348 7.50686 -4.37624 5.94968 7.93808 -4.18539 6.11185 8.37203 -3.99727 6.25161 8.81588 -3.81433 6.35819 9.27796 -3.65584 6.49614 9.72898 -3.48988 6.63266 10.1582 -3.27274 6.78976 10.5746 -3.04489 6.98434 10.9738 -2.81519 7.05639 11.1424 -2.7341 4.75904 4.34638 -8.47194 4.87169 4.7865 -8.26311 4.98479 5.21238 -8.02683 5.10747 5.64134 -7.80112 5.2318 6.06743 -7.57092 5.33834 6.49499 -7.33462 5.4335 6.94524 -7.13912 5.52906 7.39556 -6.94397 5.65452 7.83665 -6.74474 5.76023 8.27967 -6.53844 5.86025 8.72615 -6.3368 5.96624 9.17525 -6.14427 6.08115 9.62075 -5.94849 6.19465 10.0628 -5.74424 6.31021 10.5027 -5.5366 6.41677 10.9555 -5.35318 6.60333 11.3854 -5.17895 6.72429 11.6727 -5.03556 5.32527 5.04207 -10.2576 5.23141 5.5105 -10.1101 5.10172 5.95729 -9.92687 4.97214 6.40517 -9.74628 4.83619 6.84492 -9.551 4.69501 7.28557 -9.36153 4.5574 7.72589 -9.16872 4.47744 8.16362 -8.94068 4.39332 8.60206 -8.71552 4.32867 9.05546 -8.5149 4.23029 9.51246 -8.33751 4.12754 9.96885 -8.161 4.04325 10.4325 -7.99396 3.96518 10.8955 -7.82208 3.882 11.3625 -7.66388 3.76536 11.7919 -7.52223 5.55188 5.70652 -12.1265 5.77548 5.30612 -12.3257 5.99659 4.91215 -12.5399 6.21701 4.51327 -12.7456 6.49753 4.15392 -12.951 6.77621 3.78434 -13.1401 7.0352 3.41036 -13.3476 7.25813 3.0122 -13.552 7.48982 2.61389 -13.7461 7.73042 2.21964 -13.9376 7.96177 1.83014 -14.1491 8.18709 1.43814 -14.3626 8.39832 1.05239 -14.6005 8.63719 0.652592 -14.7824 8.67109 0.595594 -14.8089 5.75051 6.27705 -14.0311 6.07091 6.65239 -13.9507 6.44323 6.97313 -13.8585 6.77692 7.3416 -13.8048 7.094 7.72605 -13.7641 7.43654 8.08962 -13.742 7.76179 8.46668 -13.6969 8.08892 8.84312 -13.6612 8.40542 9.22672 -13.6094 8.69899 9.61869 -13.5085 8.98774 10.0159 -13.4145 9.23224 10.4436 -13.329 9.30687 10.5781 -13.3039 5.9841 6.53891 -15.9992 5.75406 6.97953 -15.9451 5.47544 7.39309 -15.9084 5.1925 7.80337 -15.8682 4.94709 8.22824 -15.772 4.70417 8.65263 -15.6676 4.47528 9.09136 -15.5961 4.24912 9.53085 -15.5206 4.01534 9.96898 -15.4623 3.79701 10.414 -15.3968 3.70205 10.6107 -15.3737 6.02202 6.34853 -17.9835 5.54468 6.28494 -18.118 5.07432 6.22163 -18.2754 4.60366 6.15844 -18.4318 4.12881 6.11773 -18.583 3.65066 6.10378 -18.7286 3.17273 6.11913 -18.8747 2.68192 6.08491 -18.9637 2.4254 6.06156 -19.0125 6.17818 6.01856 -19.9491 5.6818 6.07251 -19.9755 5.18593 6.13592 -19.9851 4.68996 6.19859 -19.9945 4.19357 6.25391 -19.9713 3.70679 6.33633 -19.8923 3.43153 6.38247 -19.848 6.25719 5.88452 -21.9394 6.71621 6.07382 -21.9983 7.17045 6.26412 -22.0846 7.60869 6.48945 -22.1693 7.8623 6.60211 -22.2085 6.24641 5.82555 -23.9368 6.47052 5.38127 -23.9857 6.58861 5.15756 -24.0126 0 0 -1.2 -0.434318 0.0118778 -1.44744 -0.864504 0.0187902 -1.70218 -1.29464 0.0224112 -1.95707 -1.71922 0.00462424 -2.22053 -2.11835 0.00399158 -2.52169 -2.51005 0.0152265 -2.83225 -2.89982 0.0440631 -3.14409 -3.29544 0.0606594 -3.4494 -3.6854 0.0837402 -3.76148 -4.07543 0.106045 -4.07355 -4.45993 0.0992123 -4.39309 -4.84767 0.0956408 -4.70876 -5.27179 0.102404 -4.97347 -5.69132 0.112912 -5.24529 -6.09479 0.127716 -5.54024 -6.49374 0.114036 -5.84133 -6.88141 0.0682508 -6.15376 -7.26533 0.0274596 -6.47147 -7.61381 -0.0673612 -6.81726 -7.94997 -0.183629 -7.16866 -8.26867 -0.284627 -7.54045 -8.59403 -0.365232 -7.91145 -8.95228 -0.445981 -8.25077 -9.29022 -0.572534 -8.59686 -9.65404 -0.647508 -8.93154 -10.0091 -0.690866 -9.28092 -10.3646 -0.732867 -9.62998 -10.7453 -0.739137 -9.95405 -11.1053 -0.83892 -10.2864 -11.4756 -0.895221 -10.6176 -11.8391 -0.96199 -10.9544 -12.199 -1.02542 -11.2956 -12.5 -1.11474 -11.6848 -12.7888 -1.22714 -12.0771 -13.0727 -1.3533 -12.4689 -13.3816 -1.45165 -12.8495 -13.6581 -1.54419 -13.2557 -13.9217 -1.60625 -13.6761 -14.1739 -1.68024 -14.1014 -14.4163 -1.75623 -14.5321 -14.6575 -1.827 -14.9643 -14.8696 -1.9065 -15.41 -15.0743 -1.98913 -15.8587 -15.2489 -2.1052 -16.3126 -15.4281 -2.22254 -16.7644 -15.6052 -2.35796 -17.2119 -15.7363 -2.48552 -17.6773 -15.8672 -2.61152 -18.1431 -15.9852 -2.76698 -18.6034 -16.0914 -2.88286 -19.0781 -16.1571 -2.98817 -19.5624 -16.1834 -3.1005 -20.0489 -16.2037 -3.21082 -20.5362 -16.2142 -3.27224 -20.8086 -1.71922 0.00462424 -2.22053 -1.71681 0.470181 -2.40288 -1.67528 0.920046 -2.61712 -1.62652 1.36636 -2.83717 -1.59525 1.82249 -3.03957 -1.58835 1.89875 -3.0676 -3.29544 0.0606594 -3.4494 -3.38534 0.487282 -3.20463 -3.47977 0.915574 -2.96452 -3.50606 1.05647 -2.88419 -4.84767 0.0956408 -4.70876 -4.99604 0.186909 -4.56236 0 0 -1.2 0.396335 0.0517783 -1.5004 0.79339 0.103187 -1.7999 1.18523 0.157574 -2.10568 1.58057 0.217845 -2.40581 1.9457 0.290847 -2.7395 2.32972 0.314951 -3.05879 2.73304 0.371121 -3.34892 2.75224 0.373795 -3.36273 
</DataArray>
</Points>
<Lines>
<DataArray type="Int32" Name="connectivity" NumberOfComponents="1" format="ascii" >
0 1 2 3 4 5 6 7 8 9 10 11 12 13 14 15 16 17 18 19 20 21 22 23 24 25 26 27 28 29 30 31 32 33 34 35 36 37 38 39 40 41 42 43 44 45 46 47 48 49 50 51 52 53 54 55 56 57 58 59 60 61 62 63 64 65 66 67 68 69 70 71 72 73 74 75 76 77 78 79 80 81 82 83 84 85 86 87 88 89 90 91 92 93 94 95 96 97 98 99 100 101 102 103 104 105 106 107 108 109 110 111 112 113 114 115 116 117 118 119 120 121 122 123 124 125 126 127 128 129 130 131 132 133 134 135 136 137 138 139 140 141 142 143 144 145 146 147 148 149 150 151 152 153 154 155 156 157 158 159 160 161 162 163 164 165 166 167 168 169 170 171 172 173 174 175 176 177 178 179 180 181 182 183 184 185 186 187 188 189 190 191 192 193 194 195 196 197 198 199 200 201 202 203 204 205 206 207 208 209 210 211 212 213 214 215 216 217 218 219 220 221 222 223 224 225 226 227 228 229 230 231 232 233 234 235 236 237 238 239 240 241 242 243 244 245 246 247 248 249 250 251 252 253 254 255 256 257 258 259 260 261 262 263 264 265 266 267 268 269 270 271 272 273 274 275 276 277 278 279 280 281 282 283 284 285 286 287 288 289 290 291 292 293 294 295 296 297 298 299 300 301 302 303 304 305 306 307 308 309 310 311 312 313 314 315 316 317 318 319 320 321 322 323 324 325 326 327 328 329 330 331 332 333 334 335 336 337 338 339 340 341 342 343 344 345 346 347 348 349 350 351 352 353 354 355 356 357 358 359 
</DataArray>
<DataArray type="Int32" Name="offsets" NumberOfComponents="1" format="ascii" >
97 122 145 167 187 205 221 236 249 260 269 276 281 284 339 345 349 351 360 
</DataArray>

</Lines>
</Piece>
</PolyData>
</VTKFile>
