<?xml version="1.0"?><VTKFile type="PolyData" version="0.1" byte_order="LittleEndian">
<PolyData>
<Piece NumberOfLines="215" NumberOfPoints="766">
<PointData Scalars=" PointData">
<DataArray type="Float32" Name="time" NumberOfComponents="1" format="ascii" >
0 0.589732 0.826467 1.06369 1.30139 1.53958 1.77827 2.01744 2.25711 2.49728 2.73794 2.97911 3.22077 3.46294 3.70562 3.94881 4.19251 4.43672 4.68144 4.92669 5.17245 5.41873 5.66554 5.91288 6.16074 6.40913 6.65806 6.90752 7.15752 7.40806 7.65915 7.91077 8.16295 8.41567 8.66895 8.92278 9.17716 9.43211 9.68761 9.94368 10 2.25711 6.63094 10 2.49728 6.7063 10 2.73794 6.94932 10 2.97911 7.17535 10 3.22077 7.55881 10 3.46294 7.89244 10 3.70562 8.21653 10 3.94881 5.43097 6.37603 7.36796 8.41168 9.51288 10 6.53797 10 7.53818 10 8.59105 10 9.70245 10 4.19251 5.67997 6.63422 7.64103 8.70652 9.83795 10 6.79822 10 7.81436 10 8.8903 10 4.43672 5.92725 6.88686 7.9024 8.9808 10 7.05206 10 8.07757 10 9.16721 10 4.68144 9.45484 10 4.92669 9.40995 10 5.17245 9.3486 10 5.41873 9.90725 10 5.66554 10 5.91288 10 6.16074 10 6.40913 10 6.65806 10 6.90752 10 7.15752 10 7.40806 10 7.65915 10 7.91077 10 8.16295 9.65041 10 8.41567 10 8.66895 10 8.92278 10 9.17716 10 9.43211 10 9.68761 10 9.94368 10 0 0.589802 0.826604 1.06391 1.30173 1.54006 1.77891 2.01827 2.25814 2.49854 2.73946 2.98091 3.22288 3.46538 3.70842 3.95199 4.19609 4.44074 4.68592 4.93165 5.17792 5.42475 5.67212 5.92005 6.16853 6.41757 6.66718 6.91734 7.16807 7.41937 7.67125 7.92369 8.17671 8.43031 8.6845 8.93926 9.19462 9.45056 9.7071 9.96423 10 2.25814 3.7403 4.68536 5.6773 6.72102 7.82221 8.98759 10 4.84731 9.44895 10 5.84751 10 6.90039 10 8.01179 10 9.1886 10 2.49854 6.93233 10 2.73946 4.22999 5.18961 6.20515 7.28355 8.4331 9.66387 10 5.35481 9.59998 10 6.38031 10 7.46995 10 8.63229 10 9.87772 10 2.98091 7.53115 10 3.22288 7.69317 10 3.46538 7.72634 10 3.70842 8.08471 10 3.95199 8.20697 10 4.19609 8.64997 10 4.44074 8.92212 10 4.68592 9.06724 10 4.93165 9.40512 10 5.17792 10 5.42475 9.9441 10 5.67212 9.9811 10 5.92005 10 6.16853 10 6.41757 10 6.66718 10 6.91734 10 7.16807 10 7.41937 10 7.67125 10 7.92369 10 8.17671 10 8.43031 10 8.6845 10 8.93926 10 9.19462 10 9.45056 10 9.7071 10 9.96423 10 1 1.58985 1.82669 2.06406 2.30195 2.54037 2.77931 3.01879 3.2588 3.49935 3.74043 3.98206 4.22423 4.46694 4.7102 4.95401 5.19838 5.4433 5.68877 5.93481 6.18141 6.42858 6.67632 6.92462 7.1735 7.42296 7.67299 7.92361 8.17481 8.42659 8.67897 8.93194 9.1855 9.43967 9.69443 9.9498 10 3.2588 7.79981 10 3.49935 7.97667 10 3.74043 8.05633 10 3.98206 8.46174 10 4.22423 8.67717 10 4.46694 5.9544 6.90866 7.91546 8.98095 10 7.07266 10 8.08879 10 9.16473 10 4.7102 9.23544 10 4.95401 9.4717 10 5.19838 9.61416 10 5.4433 10 5.68877 10 5.93481 10 6.18141 10 6.42858 10 6.67632 10 6.92462 10 7.1735 10 7.42296 10 7.67299 10 7.92361 9.40829 10 8.17481 10 8.42659 9.91712 10 8.67897 10 8.93194 10 9.1855 10 9.43967 10 9.69443 10 9.9498 10 2 2.5897 2.8264 3.06358 3.30123 3.53936 3.77797 4.01706 4.25663 4.49669 4.73723 4.97826 5.21979 5.4618 5.70432 5.94733 6.19083 6.43484 6.67935 6.92437 7.1699 7.41593 7.66247 7.90953 8.15711 8.4052 8.65381 8.90295 9.15261 9.40279 9.65351 9.90476 10 4.25663 8.94226 10 4.49669 8.7518 10 4.73723 9.06109 10 4.97826 9.33538 10 5.21979 9.51691 10 5.4618 6.94166 7.88274 8.8683 9.90275 10 8.0438 10 9.03718 10 5.70432 10 5.94733 10 6.19083 10 6.43484 10 6.67935 10 6.92437 10 7.1699 10 7.41593 10 7.66247 10 7.90953 10 8.15711 9.64764 10 8.4052 10 8.65381 10 8.90295 10 9.15261 10 9.40279 10 9.65351 10 9.90476 10 3 3.58968 3.82636 4.06351 4.30113 4.53922 4.77778 5.01682 5.25633 5.49632 5.73679 5.97775 6.21918 6.46111 6.70352 6.94642 7.18981 7.43369 7.67807 7.92295 8.16833 8.41421 8.66059 8.90748 9.15488 9.40279 9.65121 9.90014 10 5.25633 9.95778 10 5.49632 10 5.73679 9.99196 10 5.97775 10 6.21918 10 6.46111 10 6.70352 10 6.94642 8.4311 9.38053 10 9.54345 10 7.18981 10 7.43369 10 7.67807 10 7.92295 10 8.16833 10 8.41421 9.91621 10 8.66059 10 8.90748 10 9.15488 10 9.40279 10 9.65121 10 9.90014 10 4 4.58987 4.82674 5.06414 5.30207 5.54054 5.77954 6.01909 6.25917 6.4998 6.74098 6.9827 7.22498 7.46781 7.7112 7.95515 8.19966 8.44474 8.69038 8.93659 9.18338 9.43074 9.67868 9.9272 10 6.25917 10 6.4998 7.99373 8.95933 9.9847 10 9.12588 10 6.74098 10 6.9827 10 7.22498 10 7.46781 10 7.7112 10 7.95515 9.44568 10 8.19966 10 8.44474 10 8.69038 10 8.93659 10 9.18338 10 9.43074 10 9.67868 10 9.9272 10 5 5.58966 5.82632 6.06345 6.30104 6.53909 6.77761 7.01659 7.25605 7.49597 7.73637 7.97725 8.2186 8.46043 8.70274 8.94553 9.18881 9.43257 9.67683 9.92157 10 7.25605 8.73821 9.68326 10 9.84521 10 7.49597 8.9865 9.94611 10 7.73637 10 7.97725 10 8.2186 10 8.46043 10 8.70274 10 8.94553 10 9.18881 10 9.43257 10 9.67683 10 9.92157 10 6 6.58976 6.82653 7.06379 7.30154 7.5398 7.77855 8.01781 8.25757 8.49784 8.73862 8.9799 9.22171 9.46403 9.70686 9.95022 10 8.25757 10 8.49784 10 8.73862 10 8.9799 10 9.22171 10 9.46403 10 9.70686 10 9.95022 10 7 7.58981 7.82662 8.06394 8.30177 8.54011 8.77897 9.01835 9.25824 9.49866 9.73961 9.98108 10 9.25824 10 9.49866 10 9.73961 10 9.98108 10 8 8.5896 8.8262 9.06324 9.30073 9.53866 9.77703 10 9 9.5896 9.82621 10 
</DataArray>

</PointData>
<CellData Scalars=" CellData">
<DataArray type="Float32" Name="radius" NumberOfComponents="1" format="ascii" >
0.05 0.008 0.008 0.008 0.008 0.008 0.008 0.008 0.015 0.008 0.008 0.008 0.008 0.015 0.008 0.008 0.008 0.015 0.008 0.008 0.008 0.008 0.008 0.008 0.008 0.008 0.008 0.008 0.008 0.008 0.008 0.008 0.008 0.008 0.008 0.015 0.008 0.008 0.008 0.008 0.008 0.008 0.008 0.05 0.015 0.008 0.008 0.008 0.008 0.008 0.008 0.015 0.008 0.008 0.008 0.008 0.008 0.008 0.008 0.008 0.008 0.008 0.008 0.008 0.008 0.008 0.008 0.008 0.008 0.008 0.008 0.008 0.008 0.008 0.008 0.008 0.008 0.008 0.008 0.008 0.008 0.008 0.008 0.008 0.008 0.008 0.05 0.008 0.008 0.008 0.008 0.008 0.015 0.008 0.008 0.008 0.008 0.008 0.008 0.008 0.008 0.008 0.008 0.008 0.008 0.008 0.008 0.008 0.008 0.015 0.008 0.015 0.008 0.008 0.008 0.008 0.008 0.008 0.05 0.008 0.008 0.008 0.008 0.008 0.015 0.008 0.008 0.008 0.008 0.008 0.008 0.008 0.008 0.008 0.008 0.008 0.008 0.015 0.008 0.008 0.008 0.008 0.008 0.008 0.008 0.05 0.008 0.008 0.008 0.008 0.008 0.008 0.008 0.015 0.008 0.008 0.008 0.008 0.008 0.008 0.015 0.015 0.008 0.008 0.008 0.008 0.008 0.05 0.008 0.015 0.008 0.008 0.008 0.008 0.008 0.008 0.015 0.008 0.008 0.008 0.008 0.008 0.008 0.008 0.015 0.05 0.015 0.008 0.015 0.008 0.008 0.008 0.008 0.008 0.008 0.008 0.008 0.008 0.008 0.05 0.008 0.008 0.008 0.008 0.008 0.008 0.008 0.008 0.05 0.008 0.008 0.008 0.015 0.05 0.05 
</DataArray>
<DataArray type="Float32" Name="subType" NumberOfComponents="1" format="ascii" >
1 3 3 3 3 3 3 3 2 3 3 3 3 2 3 3 3 2 3 3 3 3 3 3 3 3 3 3 3 3 3 3 3 3 3 2 3 3 3 3 3 3 3 4 2 3 3 3 3 3 3 2 3 3 3 3 3 3 3 3 3 3 3 3 3 3 3 3 3 3 3 3 3 3 3 3 3 3 3 3 3 3 3 3 3 3 4 3 3 3 3 3 2 3 3 3 3 3 3 3 3 3 3 3 3 3 3 3 3 2 3 2 3 3 3 3 3 3 4 3 3 3 3 3 2 3 3 3 3 3 3 3 3 3 3 3 3 2 3 3 3 3 3 3 3 4 3 3 3 3 3 3 3 2 3 3 3 3 3 3 2 2 3 3 3 3 3 4 3 2 3 3 3 3 3 3 2 3 3 3 3 3 3 3 2 4 2 3 2 3 3 3 3 3 3 3 3 3 3 4 3 3 3 3 3 3 3 3 4 3 3 3 2 4 4 
</DataArray>
<DataArray type="Float32" Name="creationTime" NumberOfComponents="1" format="ascii" >
0 2.25711 2.49728 2.73794 2.97911 3.22077 3.46294 3.70562 3.94881 6.53797 7.53818 8.59105 9.70245 4.19251 6.79822 7.81436 8.8903 4.43672 7.05206 8.07757 9.16721 4.68144 4.92669 5.17245 5.41873 5.66554 5.91288 6.16074 6.40913 6.65806 6.90752 7.15752 7.40806 7.65915 7.91077 8.16295 8.41567 8.66895 8.92278 9.17716 9.43211 9.68761 9.94368 0 2.25814 4.84731 5.84751 6.90039 8.01179 9.1886 2.49854 2.73946 5.35481 6.38031 7.46995 8.63229 9.87772 2.98091 3.22288 3.46538 3.70842 3.95199 4.19609 4.44074 4.68592 4.93165 5.17792 5.42475 5.67212 5.92005 6.16853 6.41757 6.66718 6.91734 7.16807 7.41937 7.67125 7.92369 8.17671 8.43031 8.6845 8.93926 9.19462 9.45056 9.7071 9.96423 1 3.2588 3.49935 3.74043 3.98206 4.22423 4.46694 7.07266 8.08879 9.16473 4.7102 4.95401 5.19838 5.4433 5.68877 5.93481 6.18141 6.42858 6.67632 6.92462 7.1735 7.42296 7.67299 7.92361 8.17481 8.42659 8.67897 8.93194 9.1855 9.43967 9.69443 9.9498 2 4.25663 4.49669 4.73723 4.97826 5.21979 5.4618 8.0438 9.03718 5.70432 5.94733 6.19083 6.43484 6.67935 6.92437 7.1699 7.41593 7.66247 7.90953 8.15711 8.4052 8.65381 8.90295 9.15261 9.40279 9.65351 9.90476 3 5.25633 5.49632 5.73679 5.97775 6.21918 6.46111 6.70352 6.94642 9.54345 7.18981 7.43369 7.67807 7.92295 8.16833 8.41421 8.66059 8.90748 9.15488 9.40279 9.65121 9.90014 4 6.25917 6.4998 9.12588 6.74098 6.9827 7.22498 7.46781 7.7112 7.95515 8.19966 8.44474 8.69038 8.93659 9.18338 9.43074 9.67868 9.9272 5 7.25605 9.84521 7.49597 7.73637 7.97725 8.2186 8.46043 8.70274 8.94553 9.18881 9.43257 9.67683 9.92157 6 8.25757 8.49784 8.73862 8.9799 9.22171 9.46403 9.70686 9.95022 7 9.25824 9.49866 9.73961 9.98108 8 9 
</DataArray>

</CellData>
<Points>
<DataArray type="Float32" Name="Coordinates" NumberOfComponents="3" format="ascii" >
0 0 -3 0.609713 -0.741075 -3.28117 0.830235 -1.04802 -3.41215 1.03993 -1.35447 -3.56085 1.23961 -1.66151 -3.72167 1.44262 -1.96891 -3.87752 1.64633 -2.27834 -4.02836 1.86577 -2.58499 -4.16183 2.06109 -2.91143 -4.28548 2.2618 -3.21246 -4.45605 2.45123 -3.51806 -4.63133 2.66391 -3.8023 -4.81565 2.88182 -4.08687 -4.99323 3.0829 -4.37863 -5.17882 3.308 -4.67374 -5.32795 3.53457 -4.96282 -5.48639 3.76937 -5.23814 -5.65688 3.99635 -5.51476 -5.83565 4.22004 -5.79343 -6.0154 4.43614 -6.08228 -6.18821 4.62634 -6.37277 -6.38679 4.81761 -6.66504 -6.58172 4.98841 -6.93465 -6.82284 5.16184 -7.19296 -7.07424 5.33665 -7.45394 -7.32188 5.51103 -7.71168 -7.57321 5.6927 -7.96065 -7.82817 5.86279 -8.21609 -8.08473 6.04551 -8.42943 -8.3695 6.22387 -8.64812 -8.65299 6.383 -8.88819 -8.93056 6.55139 -9.11096 -9.21695 6.68902 -9.32587 -9.52496 6.81586 -9.53801 -9.83946 6.93346 -9.73956 -10.1643 7.04279 -9.93083 -10.4982 7.14018 -10.12 -10.8369 7.23361 -10.2862 -11.1886 7.30172 -10.4491 -11.5475 7.37195 -10.5968 -11.9125 7.38834 -10.6303 -11.9921 0.609713 -0.741075 -3.28117 0.470207 -1.52021 -2.67003 0.442826 -1.83417 -2.33168 0.830235 -1.04802 -3.41215 0.909907 -0.826693 -4.38409 0.925921 -0.768973 -4.88596 1.03993 -1.35447 -3.56085 1.06438 -2.3486 -3.66626 0.984734 -2.81474 -3.69257 1.23961 -1.66151 -3.72167 1.82589 -1.2945 -4.44387 2.0594 -1.13988 -4.79396 1.44262 -1.96891 -3.87752 2.12635 -2.32997 -3.24337 2.35043 -2.48721 -3.00594 1.64633 -2.27834 -4.02836 2.41612 -1.98654 -4.59605 2.65334 -1.90465 -4.76488 1.86577 -2.58499 -4.16183 1.85692 -2.61577 -5.16132 1.90489 -2.61028 -5.40617 2.06109 -2.91143 -4.28548 2.55749 -3.63553 -3.80666 2.84183 -4.11016 -3.57455 3.22553 -4.52999 -3.38347 3.60694 -4.92152 -3.13601 3.66373 -5.4553 -2.86796 3.72099 -5.68945 -2.7846 2.55749 -3.63553 -3.80666 2.58557 -3.58269 -2.98781 2.84183 -4.11016 -3.57455 3.42476 -4.1363 -3.37305 3.22553 -4.52999 -3.38347 3.06784 -4.73985 -3.09581 3.60694 -4.92152 -3.13601 3.68017 -4.88497 -3.10571 2.2618 -3.21246 -4.45605 3.24143 -3.30009 -4.63673 3.80914 -3.47195 -4.72714 4.35885 -3.6669 -4.86787 4.77292 -4.00544 -5.13978 5.21282 -4.32705 -5.39091 5.27811 -4.37285 -5.41365 3.24143 -3.30009 -4.63673 3.1791 -4.02457 -4.92756 3.80914 -3.47195 -4.72714 4.10862 -3.55558 -4.25174 4.35885 -3.6669 -4.86787 4.32951 -3.89678 -5.07481 2.45123 -3.51806 -4.63133 3.26185 -3.22554 -5.13862 3.72383 -2.89074 -5.32432 4.19329 -2.68831 -5.63837 4.66975 -2.46277 -5.92492 5.09152 -2.24801 -6.17205 3.26185 -3.22554 -5.13862 3.81091 -3.67613 -4.9939 3.72383 -2.89074 -5.32432 3.71803 -2.4717 -5.02737 4.19329 -2.68831 -5.63837 4.25064 -2.47687 -5.55447 2.66391 -3.8023 -4.81565 3.30789 -4.42986 -4.37808 3.35459 -4.47562 -4.34623 2.88182 -4.08687 -4.99323 2.60001 -4.52424 -5.84721 2.57686 -4.57226 -5.92088 3.0829 -4.37863 -5.17882 2.42202 -5.02343 -4.79481 2.33284 -5.08534 -4.74888 3.308 -4.67374 -5.32795 3.22694 -4.72639 -6.32327 3.22564 -4.72719 -6.33794 3.53457 -4.96282 -5.48639 4.03212 -4.53411 -6.22864 3.76937 -5.23814 -5.65688 4.14939 -4.79855 -6.43713 3.99635 -5.51476 -5.83565 3.77547 -5.5033 -6.65708 4.22004 -5.79343 -6.0154 3.8636 -6.55586 -5.94798 4.43614 -6.08228 -6.18821 5.03066 -5.64517 -6.5631 4.62634 -6.37277 -6.38679 4.26006 -6.99298 -6.22755 4.81761 -6.66504 -6.58172 5.47663 -6.43767 -6.59761 4.98841 -6.93465 -6.82284 5.53996 -6.61885 -6.9591 5.16184 -7.19296 -7.07424 4.93539 -7.02228 -7.60519 5.33665 -7.45394 -7.32188 5.76096 -7.26784 -7.59791 5.51103 -7.71168 -7.57321 6.18829 -8.43468 -7.43688 6.38079 -8.53551 -7.38487 5.6927 -7.96065 -7.82817 5.68701 -8.26816 -7.52319 5.86279 -8.21609 -8.08473 5.67367 -8.28268 -8.38605 6.04551 -8.42943 -8.3695 6.05437 -8.7105 -8.27546 6.22387 -8.64812 -8.65299 6.06552 -8.73601 -8.80122 6.383 -8.88819 -8.93056 6.50578 -8.80955 -9.00672 6.55139 -9.11096 -9.21695 6.57634 -9.19532 -9.19181 6.68902 -9.32587 -9.52496 6.70582 -9.32615 -9.52562 0 0 -3 -0.536948 -0.841233 -3.06336 -0.764607 -1.16768 -3.10344 -1.04233 -1.45444 -3.12862 -1.33711 -1.72321 -3.15816 -1.61252 -2.0048 -3.2278 -1.87794 -2.28759 -3.32572 -2.15333 -2.56018 -3.425 -2.4336 -2.8234 -3.53527 -2.70191 -3.09557 -3.6533 -2.96673 -3.36678 -3.78103 -3.24905 -3.61485 -3.91799 -3.53688 -3.85501 -4.05756 -3.8177 -4.10376 -4.19635 -4.10489 -4.35171 -4.32302 -4.39961 -4.56551 -4.48864 -4.69213 -4.77859 -4.659 -4.98632 -4.98182 -4.83832 -5.25105 -5.2188 -5.02205 -5.50632 -5.46016 -5.21332 -5.76791 -5.70079 -5.39681 -5.99962 -5.96413 -5.58905 -6.23246 -6.22663 -5.78111 -6.47842 -6.49609 -5.94509 -6.72595 -6.76291 -6.11104 -6.96258 -7.00622 -6.32271 -7.15812 -7.28134 -6.53736 -7.35289 -7.55752 -6.75134 -7.50966 -7.83912 -6.98826 -7.63977 -8.13587 -7.22279 -7.74951 -8.44315 -7.45417 -7.83965 -8.75507 -7.68779 -7.91359 -9.07395 -7.91768 -7.98893 -9.391 -8.14964 -8.08984 -9.69454 -8.38981 -8.20484 -9.97782 -8.64774 -8.34439 -10.2481 -8.90746 -8.50471 -10.4848 -9.18725 -8.62854 -10.7239 -9.48306 -8.77845 -10.9403 -9.78419 -8.79712 -10.9714 -9.82634 -0.536948 -0.841233 -3.06336 -1.31558 -1.27438 -2.60936 -1.79461 -1.53586 -2.36003 -2.22524 -1.89179 -2.14125 -2.6948 -2.12122 -1.84651 -3.24418 -2.22081 -1.62682 -3.77922 -2.37566 -1.40375 -4.23204 -2.48551 -1.24087 -1.31558 -1.27438 -2.60936 -1.92204 -0.680204 -2.081 -1.97991 -0.640979 -2.04185 -1.79461 -1.53586 -2.36003 -1.42949 -2.38098 -2.12438 -2.22524 -1.89179 -2.14125 -2.92109 -1.72728 -2.40132 -2.6948 -2.12122 -1.84651 -2.66045 -1.95909 -1.33862 -3.24418 -2.22081 -1.62682 -3.22148 -2.26941 -1.40183 -0.764607 -1.16768 -3.10344 -0.936646 -1.37924 -2.14134 -1.11246 -1.51851 -1.79447 -1.04233 -1.45444 -3.12862 -2.01084 -1.54522 -2.89678 -2.44735 -1.22346 -3.15354 -3.00322 -1.08356 -3.33086 -3.58974 -0.96234 -3.36687 -4.0647 -0.793539 -3.69232 -4.57596 -0.705232 -3.99367 -4.6804 -0.670605 -4.10514 -2.01084 -1.54522 -2.89678 -2.02794 -1.48173 -1.89894 -2.02913 -1.47748 -1.82834 -2.44735 -1.22346 -3.15354 -2.79375 -0.679976 -2.56095 -3.00322 -1.08356 -3.33086 -3.04098 -0.896624 -3.94074 -3.58974 -0.96234 -3.36687 -3.84265 -1.18294 -3.21411 -4.0647 -0.793539 -3.69232 -4.08464 -0.772339 -3.67043 -1.33711 -1.72321 -3.15816 -1.86598 -1.62903 -2.3147 -2.0789 -1.59776 -2.07463 -1.61252 -2.0048 -3.2278 -1.33487 -2.93427 -3.47071 -1.23433 -3.22851 -3.54237 -1.87794 -2.28759 -3.32572 -2.28912 -3.12667 -2.96955 -2.45567 -3.39419 -2.80118 -2.15333 -2.56018 -3.425 -3.11181 -2.39792 -3.19052 -3.38647 -2.3485 -3.12342 -2.4336 -2.8234 -3.53527 -3.29809 -2.41343 -3.82612 -3.54749 -2.29082 -3.91143 -2.70191 -3.09557 -3.6533 -2.50136 -3.67509 -2.86341 -2.46037 -3.78858 -2.70293 -2.96673 -3.36678 -3.78103 -2.91266 -4.09687 -3.09982 -2.94396 -4.19774 -2.97852 -3.24905 -3.61485 -3.91799 -4.01898 -3.81069 -3.31066 -4.14097 -3.83718 -3.23052 -3.53688 -3.85501 -4.05756 -4.15629 -4.13093 -3.32258 -4.21302 -4.15597 -3.25446 -3.8177 -4.10376 -4.19635 -4.49733 -3.58728 -4.70806 -4.10489 -4.35171 -4.32302 -3.53729 -5.04808 -4.76222 -3.53288 -5.05492 -4.76552 -4.39961 -4.56551 -4.48864 -4.08682 -5.50989 -4.38711 -4.08586 -5.51304 -4.38685 -4.69213 -4.77859 -4.659 -4.42249 -5.65403 -4.78662 -4.98632 -4.98182 -4.83832 -4.64864 -5.67307 -5.2701 -5.25105 -5.2188 -5.02205 -4.92229 -5.96266 -4.99226 -5.50632 -5.46016 -5.21332 -5.16988 -6.12563 -5.42991 -5.76791 -5.70079 -5.39681 -5.44635 -6.2171 -5.85758 -5.99962 -5.96413 -5.58905 -5.69814 -6.62851 -5.63951 -6.23246 -6.22663 -5.78111 -6.82816 -5.9582 -5.89425 -6.47842 -6.49609 -5.94509 -6.2454 -6.65709 -6.48277 -6.72595 -6.76291 -6.11104 -7.09976 -6.8594 -5.73022 -6.96258 -7.00622 -6.32271 -6.80309 -7.43928 -6.18025 -7.15812 -7.28134 -6.53736 -6.9288 -7.35554 -6.89093 -7.35289 -7.55752 -6.75134 -7.5312 -7.39621 -7.01605 -7.50966 -7.83912 -6.98826 -7.34536 -8.07975 -6.94937 -7.63977 -8.13587 -7.22279 -7.86262 -8.12625 -7.17739 -7.74951 -8.44315 -7.45417 -7.74145 -8.4051 -7.60737 -7.83965 -8.75507 -7.68779 -7.92421 -8.75625 -7.70424 -7.91359 -9.07395 -7.91768 -7.90439 -9.07819 -7.92113 0 0 -3 -0.959443 -0.242941 -3.143 -1.34122 -0.342425 -3.20894 -1.72779 -0.436503 -3.25033 -2.11058 -0.543334 -3.29574 -2.49554 -0.638858 -3.34751 -2.87999 -0.734096 -3.40342 -3.25099 -0.874761 -3.45418 -3.62896 -1.00496 -3.46774 -4.00862 -1.1298 -3.48416 -4.38716 -1.2502 -3.53119 -4.76839 -1.36888 -3.55527 -5.14697 -1.49465 -3.58459 -5.52549 -1.62058 -3.61399 -5.90535 -1.73484 -3.66548 -6.28524 -1.8497 -3.71539 -6.67002 -1.95892 -3.71116 -7.05485 -2.06801 -3.71138 -7.45059 -2.12503 -3.69961 -7.84673 -2.18044 -3.69746 -8.23727 -2.25861 -3.73444 -8.6285 -2.33319 -3.7716 -9.01934 -2.40189 -3.82179 -9.4089 -2.46756 -3.88452 -9.79641 -2.53252 -3.95944 -10.1915 -2.57567 -4.00475 -10.5864 -2.61707 -4.05295 -10.9797 -2.65629 -4.1144 -11.3715 -2.69132 -4.18692 -11.7619 -2.72783 -4.26597 -12.1513 -2.76589 -4.3494 -12.5349 -2.7797 -4.46182 -12.9085 -2.81812 -4.59938 -13.2798 -2.85993 -4.74231 -13.6511 -2.902 -4.88501 -14.0211 -2.94759 -5.03003 -14.0932 -2.95814 -5.05919 -0.959443 -0.242941 -3.143 -1.53917 -0.0314738 -2.35611 -1.69578 0.0537439 -2.12209 -1.34122 -0.342425 -3.20894 -2.11726 -0.0884484 -2.63166 -2.34718 -0.0443721 -2.47089 -1.72779 -0.436503 -3.25033 -1.83308 -1.41008 -3.45296 -1.90334 -1.68188 -3.56229 -2.11058 -0.543334 -3.29574 -1.75128 -1.34169 -3.77899 -1.6893 -1.51859 -3.89926 -2.49554 -0.638858 -3.34751 -2.40932 -0.931527 -4.29983 -2.35769 -0.957394 -4.48837 -2.87999 -0.734096 -3.40342 -3.56487 -0.961093 -2.71102 -3.95265 -1.15538 -2.29645 -4.41412 -1.26024 -1.9276 -4.91635 -1.318 -1.60444 -5.36629 -1.39864 -1.31312 -3.56487 -0.961093 -2.71102 -3.67797 -1.67423 -2.76902 -3.95265 -1.15538 -2.29645 -4.35585 -1.33084 -2.54774 -4.41412 -1.26024 -1.9276 -4.32405 -1.28364 -1.71153 -3.25099 -0.874761 -3.45418 -3.69794 -1.26543 -2.64944 -3.7388 -1.31455 -2.55516 -3.62896 -1.00496 -3.46774 -3.95144 -1.41453 -2.61436 -3.97621 -1.44709 -2.54524 -4.00862 -1.1298 -3.48416 -4.21805 -1.31002 -4.44523 -4.23594 -1.31827 -4.50448 -4.38716 -1.2502 -3.53119 -4.64682 -0.877012 -4.41738 -4.76839 -1.36888 -3.55527 -5.31685 -0.824174 -2.9248 -5.14697 -1.49465 -3.58459 -5.3295 -0.920307 -4.32803 -5.52549 -1.62058 -3.61399 -6.02537 -1.00871 -3.24826 -5.90535 -1.73484 -3.66548 -6.38886 -1.23298 -4.11952 -6.28524 -1.8497 -3.71539 -6.41536 -2.04234 -4.49129 -6.67002 -1.95892 -3.71116 -7.12356 -1.37141 -3.82145 -7.05485 -2.06801 -3.71138 -7.27084 -2.50385 -4.22008 -7.45059 -2.12503 -3.69961 -7.7637 -1.56808 -3.51743 -7.84673 -2.18044 -3.69746 -8.17688 -1.81656 -3.38569 -8.23727 -2.25861 -3.73444 -8.73191 -3.12723 -3.70585 -8.88668 -3.47075 -3.68378 -8.6285 -2.33319 -3.7716 -8.8705 -1.94951 -3.63072 -9.01934 -2.40189 -3.82179 -9.59556 -3.08377 -4.27235 -9.62635 -3.12008 -4.29594 -9.4089 -2.46756 -3.88452 -9.47836 -2.82005 -3.84491 -9.79641 -2.53252 -3.95944 -9.83499 -2.82605 -4.00526 -10.1915 -2.57567 -4.00475 -10.295 -2.5724 -3.7979 -10.5864 -2.61707 -4.05295 -10.6346 -2.57985 -4.20333 -10.9797 -2.65629 -4.1144 -11.0108 -2.73982 -4.10204 -11.3715 -2.69132 -4.18692 -11.3783 -2.69371 -4.17374 0 0 -3 -0.977524 0.203393 -3.05549 -1.36619 0.295274 -3.07775 -1.75833 0.35931 -3.12388 -2.15262 0.388131 -3.1847 -2.54622 0.414978 -3.25077 -2.93768 0.428767 -3.33182 -3.32889 0.452343 -3.41181 -3.72087 0.472777 -3.48883 -4.10801 0.495673 -3.58681 -4.49592 0.496956 -3.6844 -4.88405 0.509199 -3.78034 -5.25265 0.509794 -3.93569 -5.62067 0.505792 -4.09236 -5.98645 0.512648 -4.2541 -6.34676 0.515763 -4.42777 -6.69954 0.528469 -4.61588 -7.03001 0.529234 -4.84126 -7.34687 0.549248 -5.08457 -7.69163 0.583035 -5.28456 -8.03784 0.632756 -5.47863 -8.38117 0.673447 -5.6798 -8.71866 0.705937 -5.89204 -9.05461 0.756892 -6.10309 -9.38938 0.816484 -6.31375 -9.72909 0.850837 -6.52211 -10.0709 0.877503 -6.72812 -10.4054 0.882501 -6.94739 -10.7463 0.897211 -7.15625 -11.0915 0.899941 -7.35825 -11.4363 0.904767 -7.56091 -11.7919 0.888566 -7.74335 -11.9273 0.882149 -7.81096 -0.977524 0.203393 -3.05549 -1.00953 0.52098 -2.1078 -1.01037 0.567365 -1.97377 -1.36619 0.295274 -3.07775 -2.02862 -0.258853 -3.58186 -2.1715 -0.40975 -3.6029 -1.75833 0.35931 -3.12388 -2.16076 0.31432 -2.20953 -2.22601 0.302892 -2.07048 -2.15262 0.388131 -3.1847 -2.53444 1.27333 -3.45047 -2.57612 1.36976 -3.47933 -2.54622 0.414978 -3.25077 -3.10875 -0.347207 -2.93041 -3.15376 -0.412349 -2.90657 -2.93768 0.428767 -3.33182 -3.71301 0.855669 -3.79723 -4.22029 1.12478 -3.97115 -4.78527 1.30695 -4.05838 -5.33662 1.54362 -4.06155 -5.38681 1.56583 -4.06239 -3.71301 0.855669 -3.79723 -4.05614 0.518566 -3.97327 -4.22029 1.12478 -3.97115 -4.36436 0.964513 -4.1368 -3.32889 0.452343 -3.41181 -3.45284 0.728405 -4.30472 -3.72087 0.472777 -3.48883 -4.01256 1.10714 -2.88051 -4.10801 0.495673 -3.58681 -4.36731 0.751061 -4.42141 -4.49592 0.496956 -3.6844 -4.69077 1.00702 -4.30842 -4.88405 0.509199 -3.78034 -5.3644 0.81454 -3.22683 -5.25265 0.509794 -3.93569 -5.35758 -0.00604441 -4.50484 -5.62067 0.505792 -4.09236 -6.13298 0.242293 -3.66328 -5.98645 0.512648 -4.2541 -6.2747 -0.0631939 -4.16453 -6.34676 0.515763 -4.42777 -6.50488 0.0427526 -4.76599 -6.69954 0.528469 -4.61588 -6.6637 0.976426 -4.92592 -7.03001 0.529234 -4.84126 -7.91463 0.0654654 -4.79272 -8.08389 -0.081196 -4.80218 -7.34687 0.549248 -5.08457 -7.33087 0.926949 -5.28279 -7.69163 0.583035 -5.28456 -7.97862 0.483485 -5.08608 -8.03784 0.632756 -5.47863 -8.04814 0.746408 -5.76307 -8.38117 0.673447 -5.6798 -8.50718 0.470734 -5.67697 -8.71866 0.705937 -5.89204 -8.78575 0.587799 -5.78899 -9.05461 0.756892 -6.10309 -9.03599 0.81125 -6.18695 -9.38938 0.816484 -6.31375 -9.40961 0.79928 -6.30365 0 0 -3 0.0757078 -0.987828 -3.13589 0.103389 -1.38627 -3.15776 0.146189 -1.78285 -3.18766 0.193969 -2.17705 -3.23587 0.252428 -2.57058 -3.27721 0.32782 -2.96025 -3.327 0.416569 -3.34037 -3.41435 0.523258 -3.70882 -3.52778 0.638253 -4.06974 -3.65628 0.767921 -4.42411 -3.78896 0.847806 -4.78482 -3.94229 0.925215 -5.14782 -4.09141 1.00317 -5.48527 -4.29154 1.09546 -5.82394 -4.48333 1.18663 -6.17038 -4.66128 1.27928 -6.51443 -4.84306 1.36763 -6.86489 -5.01445 1.43634 -7.21405 -5.19711 1.52033 -7.55885 -5.38167 1.56504 -7.89929 -5.58685 1.61176 -8.26191 -5.74909 1.65362 -8.62446 -5.91281 1.71409 -8.98593 -6.07309 1.76472 -9.34509 -6.24172 1.80653 -9.70501 -6.41117 1.85092 -10.0652 -6.57931 1.89179 -10.42 -6.75951 1.91516 -10.5682 -6.81568 0.0757078 -0.987828 -3.13589 0.993191 -1.37407 -3.23096 0.998806 -1.3763 -3.23157 0.103389 -1.38627 -3.15776 -0.296297 -1.50089 -4.03225 0.146189 -1.78285 -3.18766 -0.68005 -2.1169 -3.64124 -0.681239 -2.11738 -3.64191 0.193969 -2.17705 -3.23587 0.609036 -2.61853 -2.5757 0.252428 -2.57058 -3.27721 0.877748 -2.8187 -2.75233 0.32782 -2.96025 -3.327 -0.417348 -3.16426 -2.97735 0.416569 -3.34037 -3.41435 -0.171892 -3.6671 -3.82324 0.523258 -3.70882 -3.52778 0.422955 -4.25233 -4.36117 0.521425 -4.55582 -4.8693 0.576696 -4.81372 -5.1369 0.422955 -4.25233 -4.36117 0.397034 -4.17172 -4.46326 0.638253 -4.06974 -3.65628 0.566087 -4.25954 -4.30259 0.767921 -4.42411 -3.78896 0.342105 -4.73177 -4.18489 0.847806 -4.78482 -3.94229 0.38201 -4.98011 -4.25416 0.925215 -5.14782 -4.09141 1.30955 -5.10681 -4.47152 1.00317 -5.48527 -4.29154 1.39164 -5.69208 -4.0804 1.09546 -5.82394 -4.48333 1.98575 -6.23499 -4.67935 2.03558 -6.25241 -4.68226 1.18663 -6.17038 -4.66128 0.679941 -6.91477 -4.58073 1.27928 -6.51443 -4.84306 1.08552 -6.5697 -5.06214 1.36763 -6.86489 -5.01445 1.18982 -6.91256 -5.16512 1.43634 -7.21405 -5.19711 1.55262 -7.16703 -5.31465 1.52033 -7.55885 -5.38167 1.45908 -7.63415 -5.34895 1.56504 -7.89929 -5.58685 1.55365 -7.92234 -5.57184 0 0 -3 -0.777403 -0.61442 -3.13466 -1.09176 -0.854195 -3.19537 -1.40519 -1.09713 -3.24777 -1.71763 -1.34143 -3.29973 -2.01767 -1.60377 -3.33373 -2.30892 -1.87236 -3.38877 -2.62369 -2.11608 -3.42772 -2.94426 -2.35106 -3.47271 -3.24761 -2.58168 -3.59434 -3.54623 -2.81642 -3.71973 -3.84722 -3.04695 -3.84725 -4.13544 -3.29814 -3.96485 -4.43468 -3.52595 -4.10108 -4.71333 -3.7739 -4.24555 -5.00867 -4.00468 -4.38525 -5.30462 -4.23381 -4.52638 -5.60015 -4.46235 -4.66931 -5.87966 -4.70404 -4.82247 -6.17959 -4.92813 -4.96329 -6.46705 -5.14286 -5.14008 -6.76149 -5.35246 -5.31147 -7.05978 -5.55001 -5.49036 -7.33885 -5.78355 -5.65642 -7.42017 -5.85169 -5.70575 -0.777403 -0.61442 -3.13466 -0.941677 -0.845189 -2.30907 -1.09176 -0.854195 -3.19537 -2.04603 -1.00607 -2.93788 -2.62226 -1.04285 -2.77474 -3.20929 -1.08131 -2.65679 -3.21774 -1.08219 -2.65505 -2.04603 -1.00607 -2.93788 -2.14747 -0.79402 -2.8611 -1.40519 -1.09713 -3.24777 -1.99584 -0.739139 -3.58426 -1.71763 -1.34143 -3.29973 -1.89975 -1.66482 -2.67162 -2.01767 -1.60377 -3.33373 -2.53073 -1.39207 -2.90001 -2.30892 -1.87236 -3.38877 -2.14579 -2.33977 -2.98936 -2.62369 -2.11608 -3.42772 -2.43415 -2.68242 -3.44307 -2.94426 -2.35106 -3.47271 -3.88897 -2.13519 -3.22591 -4.2312 -2.18502 -3.16827 -3.24761 -2.58168 -3.59434 -3.1797 -3.02974 -3.75294 -3.54623 -2.81642 -3.71973 -3.7188 -2.659 -4.06809 -3.84722 -3.04695 -3.84725 -4.00616 -2.91721 -4.14283 -4.13544 -3.29814 -3.96485 -3.96337 -3.53378 -3.90783 -4.43468 -3.52595 -4.10108 -4.46062 -3.75128 -4.05154 -4.71333 -3.7739 -4.24555 -4.83706 -3.78946 -4.13841 -5.00867 -4.00468 -4.38525 -4.97636 -4.04292 -4.46511 -5.30462 -4.23381 -4.52638 -5.31161 -4.28291 -4.5377 0 0 -3 -0.439707 0.895132 -3.07347 -0.668008 1.22218 -3.10374 -0.914325 1.534 -3.14952 -1.17311 1.83724 -3.18239 -1.43301 2.1398 -3.21249 -1.67879 2.45103 -3.26471 -1.91349 2.76751 -3.3337 -2.11178 3.10372 -3.42113 -2.28414 3.45601 -3.49974 -2.45363 3.81019 -3.57611 -2.6352 4.15573 -3.66347 -2.80899 4.49844 -3.77461 -2.98201 4.8415 -3.88583 -3.13408 5.19192 -4.00451 -3.2947 5.54094 -4.11578 -3.46138 5.88707 -4.2272 -3.60494 6.24401 -4.33667 -3.75184 6.59345 -4.4644 -3.89955 6.94421 -4.58748 -3.93739 7.06014 -4.62639 -0.439707 0.895132 -3.07347 -1.4164 0.991872 -2.88189 -2.01221 1.0229 -2.8182 -2.20327 1.01913 -2.78028 -1.4164 0.991872 -2.88189 -1.42195 1.02758 -2.85346 -0.668008 1.22218 -3.10374 -0.637434 1.62064 -4.02042 -0.711566 1.91004 -4.54076 -0.715256 1.92571 -4.56925 -0.914325 1.534 -3.14952 -1.44182 1.37538 -2.98533 -1.17311 1.83724 -3.18239 -1.67888 1.75635 -3.03444 -1.43301 2.1398 -3.21249 -1.44071 2.18398 -3.67893 -1.67879 2.45103 -3.26471 -1.54828 2.74958 -3.00849 -1.91349 2.76751 -3.3337 -2.16494 2.6997 -3.58017 -2.11178 3.10372 -3.42113 -1.90172 3.31759 -3.42538 -2.28414 3.45601 -3.49974 -2.48091 3.42581 -3.6144 -2.45363 3.81019 -3.57611 -2.34181 3.90517 -3.64976 -2.6352 4.15573 -3.66347 -2.63893 4.21791 -3.59209 -2.80899 4.49844 -3.77461 -2.79374 4.51618 -3.77495 0 0 -3 -0.975173 -0.120413 -3.18584 -1.36507 -0.168831 -3.26092 -1.7539 -0.221332 -3.33874 -2.14169 -0.277293 -3.41927 -2.52109 -0.353441 -3.52055 -2.9023 -0.418821 -3.62254 -3.27453 -0.49839 -3.7455 -3.64118 -0.5865 -3.87892 -3.99861 -0.686923 -4.02777 -4.35569 -0.782662 -4.18051 -4.70896 -0.852486 -4.35465 -5.0561 -0.921055 -4.54119 -5.39916 -0.982316 -4.73753 -5.71624 -1.02923 -4.97683 -6.02284 -1.05006 -5.23288 -6.08443 -1.05398 -5.28645 -0.975173 -0.120413 -3.18584 -1.17875 0.259627 -3.04969 -1.36507 -0.168831 -3.26092 -1.64016 0.0177 -3.02482 -1.7539 -0.221332 -3.33874 -1.80782 -0.317129 -3.6718 -2.14169 -0.277293 -3.41927 -2.17537 -0.294812 -3.69765 -2.52109 -0.353441 -3.52055 -2.5692 -0.564988 -3.48497 -2.9023 -0.418821 -3.62254 -2.97257 -0.449 -3.48881 -3.27453 -0.49839 -3.7455 -3.26911 -0.534767 -3.82373 -3.64118 -0.5865 -3.87892 -3.64607 -0.57543 -3.88758 0 0 -3 -0.947531 -0.315664 -3.05042 -1.32656 -0.441874 -3.0707 -1.70464 -0.570687 -3.09204 -2.07888 -0.708822 -3.12152 -2.44229 -0.870429 -3.16414 -2.80572 -1.03194 -3.20691 -3.17356 -1.17915 -3.26188 -3.53737 -1.33881 -3.3083 -3.89469 -1.51135 -3.35881 -4.26063 -1.66022 -3.42144 -4.61644 -1.82098 -3.50839 -4.64437 -1.83324 -3.51543 -0.947531 -0.315664 -3.05042 -1.10877 -0.267818 -3.17819 -1.32656 -0.441874 -3.0707 -1.33017 -0.570504 -3.13757 -1.70464 -0.570687 -3.09204 -1.73022 -0.636514 -3.06151 -2.07888 -0.708822 -3.12152 -2.08873 -0.711387 -3.11305 0 0 -3 0.0486306 0.997125 -3.05811 0.0621111 1.39534 -3.09332 0.0588574 1.79056 -3.15493 0.0470624 2.19037 -3.15822 0.0433005 2.59034 -3.15509 0.0462747 2.99033 -3.15416 0.0505548 3.36378 -3.15529 0 0 -3 -0.0719844 -0.988852 -3.13034 -0.108417 -1.38565 -3.16528 -0.118869 -1.67743 -3.19338 
</DataArray>
</Points>
<Lines>
<DataArray type="Int32" Name="connectivity" NumberOfComponents="1" format="ascii" >