<?xml version="1.0"?><VTKFile type="PolyData" version="0.1" byte_order="LittleEndian">
<PolyData>
<Piece NumberOfLines="28" NumberOfPoints="97">
<PointData Scalars=" PointData">
<DataArray type="Float32" Name="time" NumberOfComponents="1" format="ascii" >
0 0.1003 0.196063 0.273575 0.372654 0.401479 0.505263 0.542925 0.686923 0.738379 0.796418 0.843214 1.0084 1.12318 1.20938 1.3531 1.38837 1.45644 1.56589 1.58346 1.64464 1.76899 1.91465 2.03327 2.13326 2.13818 2.19669 2.37525 2.50881 2.54312 2.54312 2.66778 2.8024 2.86146 2.94764 3 0.832154 1.3888 2.58554 2.9667 3 0.940209 3 1.02783 3 1.14004 1.14012 3 1.17274 3 1.29062 3 1.33346 3 1.49761 2.68844 2.93205 3 2.68844 3 2.93205 3 2.93205 3 1.55641 3 1.6228 3 1.6764 2.93728 3 1.8661 3 1.99836 3 2.09794 3 2.09794 3 2.26446 3 2.30543 3 2.38459 3 2.38459 3 2.51217 3 2.5327 3 2.60422 3 2.74996 3 2.92134 3 
</DataArray>

</PointData>
<CellData Scalars=" CellData">
<DataArray type="Float32" Name="radius" NumberOfComponents="1" format="ascii" >
0.0794409 0.0773934 0.0657903 0.0846409 0.089709 0.0541721 0.069698 0.0559872 0.06222 0.0467458 0.0748723 0.0865398 0.0633671 0.0534514 0.0755459 0.0570087 0.0740016 0.0708838 0.0571266 0.0730971 0.046053 0.0855501 0.0704394 0.0629245 0.069285 0.0584678 0.0817395 0.071446 
</DataArray>
<DataArray type="Float32" Name="subType" NumberOfComponents="1" format="ascii" >
1 2 3 3 3 3 3 3 2 3 3 3 3 3 2 3 3 3 3 3 3 3 3 3 3 3 2 3 
</DataArray>
<DataArray type="Float32" Name="creationTime" NumberOfComponents="1" format="ascii" >
0 0.832154 0.940209 1.02783 1.14004 1.17274 1.29062 1.33346 1.49761 2.68844 2.93205 2.93205 1.55641 1.6228 1.6764 1.8661 1.99836 2.09794 2.09794 2.26446 2.30543 2.38459 2.38459 2.51217 2.5327 2.60422 2.74996 2.92134 
</DataArray>

</CellData>
<Points>
<DataArray type="Float32" Name="Coordinates" NumberOfComponents="3" format="ascii" >
0 0 -3 -0.0648898 -0.00299223 -3.49096 -0.0961204 0.0173601 -3.95478 -0.209986 0.0961907 -4.29931 -0.225995 0.176694 -4.75989 -0.244008 0.213974 -4.88806 -0.374019 0.407021 -5.30753 -0.383787 0.44059 -5.47603 -0.443838 0.513913 -6.1173 -0.447329 0.52689 -6.34487 -0.467726 0.524536 -6.59887 -0.472491 0.487979 -6.79923 -0.424551 0.323489 -7.48489 -0.421569 0.175553 -7.94146 -0.419208 0.0641716 -8.27807 -0.392221 -0.121454 -8.82709 -0.386731 -0.171008 -8.95825 -0.372877 -0.246726 -9.21547 -0.32365 -0.355569 -9.62384 -0.316341 -0.37302 -9.68876 -0.310549 -0.41181 -9.91932 -0.454617 -0.401076 -10.3646 -0.532799 -0.476967 -10.8899 -0.505566 -0.588623 -11.3017 -0.50979 -0.642066 -11.6516 -0.510026 -0.644307 -11.6687 -0.542007 -0.662249 -11.8697 -0.638664 -0.722523 -12.4705 -0.658546 -0.701031 -12.9155 -0.661398 -0.690896 -13.0279 -0.661398 -0.690895 -13.0279 -0.668338 -0.705617 -13.4328 -0.74656 -0.721218 -13.8537 -0.778626 -0.736007 -14.0352 -0.827407 -0.768057 -14.2955 -0.833731 -0.787268 -14.4544 -0.0648898 -0.00299223 -3.49096 -0.208125 -0.419789 -3.69488 -0.591672 -1.23046 -4.13725 -0.711032 -1.47822 -4.27217 -0.72402 -1.49866 -4.28289 -0.0961204 0.0173601 -3.95478 -0.166436 -0.228417 -4.03293 -0.209986 0.0961907 -4.29931 -0.199316 0.145325 -4.52544 -0.225995 0.176694 -4.75989 -0.226002 0.176696 -4.7599 -0.296701 0.195046 -4.98523 -0.244008 0.213974 -4.88806 -0.274116 0.0132541 -4.97565 -0.374019 0.407021 -5.30753 -0.525459 0.478019 -5.46815 -0.383787 0.44059 -5.47603 -0.508141 0.400729 -5.63998 -0.443838 0.513913 -6.1173 -0.955773 1.3652 -6.1343 -1.0616 1.53056 -6.1503 -1.09054 1.57662 -6.1547 -0.955773 1.3652 -6.1343 -0.956584 1.35339 -6.0996 -1.0616 1.53056 -6.1503 -1.0637 1.53475 -6.14378 -1.0616 1.53056 -6.1503 -1.05735 1.53577 -6.14438 -0.447329 0.52689 -6.34487 -0.43813 0.374442 -6.31582 -0.467726 0.524536 -6.59887 -0.411897 0.396292 -6.62897 -0.472491 0.487979 -6.79923 -1.22467 1.1111 -7.01358 -1.25556 1.14729 -7.02268 -0.424551 0.323489 -7.48489 -0.403437 0.212346 -7.49298 -0.421569 0.175553 -7.94146 -0.522288 0.110259 -7.96082 -0.419208 0.0641716 -8.27807 -0.514174 0.127444 -8.27134 -0.419208 0.0641716 -8.27807 -0.32872 0.0325342 -8.22665 -0.392221 -0.121454 -8.82709 -0.417661 -0.0477524 -8.87365 -0.386731 -0.171008 -8.95825 -0.367794 -0.0998153 -8.92684 -0.372877 -0.246726 -9.21547 -0.406912 -0.289421 -9.24901 -0.372877 -0.246726 -9.21547 -0.412749 -0.206592 -9.15973 -0.32365 -0.355569 -9.62384 -0.303026 -0.380864 -9.67716 -0.316341 -0.37302 -9.68876 -0.283639 -0.339261 -9.71666 -0.310549 -0.41181 -9.91932 -0.294751 -0.446859 -9.89126 -0.454617 -0.401076 -10.3646 -0.349596 -0.360041 -10.5214 -0.532799 -0.476967 -10.8899 -0.536338 -0.469794 -10.886 
</DataArray>
</Points>
<Lines>
<DataArray type="Int32" Name="connectivity" NumberOfComponents="1" format="ascii" >
0 1 2 3 4 5 6 7 8 9 10 11 12 13 14 15 16 17 18 19 20 21 22 23 24 25 26 27 28 29 30 31 32 33 34 35 36 37 38 39 40 41 42 43 44 45 46 47 48 49 50 51 52 53 54 55 56 57 58 59 60 61 62 63 64 65 66 67 68 69 70 71 72 73 74 75 76 77 78 79 80 81 82 83 84 85 86 87 88 89 90 91 92 93 94 95 96 
</DataArray>
<DataArray type="Int32" Name="offsets" NumberOfComponents="1" format="ascii" >
36 41 43 45 48 50 52 54 58 60 62 64 66 68 71 73 75 77 79 81 83 85 87 89 91 93 95 97 
</DataArray>

</Lines>
</Piece>
</PolyData>
</VTKFile>
