<?xml version="1.0"?><VTKFile type="PolyData" version="0.1" byte_order="LittleEndian">
<PolyData>
<Piece NumberOfLines="26" NumberOfPoints="139">
<PointData Scalars=" PointData">
<DataArray type="Float32" Name="time" NumberOfComponents="1" format="ascii" >
0 2.94076 3.47928 4.02066 4.56495 5.11218 5.66237 6.21556 6.77179 7.33108 7.89348 8.459 9.0277 9.59961 10.1748 10.7532 11.3349 11.92 12.5085 13.1004 13.6958 14.2948 14.8972 15.5033 16.113 16.7264 17.3435 17.9645 18.5892 19.2178 19.8503 20.4868 21 10.3993 13.4301 16.7607 20.457 21 10.979 11.5031 12.0321 12.566 13.1049 13.6489 14.1982 14.7527 15.3127 15.8781 16.4493 17.0261 17.6089 18.1976 18.7924 19.3934 20.0009 20.6148 21 18.4282 21 19.0254 21 19.6289 21 20.2388 21 20.8553 21 11.5621 14.6023 17.9666 21 12.1485 15.2051 18.6292 21 12.7383 13.2624 13.7914 14.3253 14.8642 15.4082 15.9574 16.512 17.0719 17.6374 18.2085 18.7854 19.3681 19.9568 20.5517 21 20.1874 21 20.7847 21 13.3316 16.3959 19.8483 21 13.9283 16.9705 20.3418 21 14.5286 17.5979 21 15.1325 18.1941 21 15.74 18.7894 21 16.3511 19.4206 21 16.966 20.0326 21 17.5846 20.6255 21 18.2069 18.7313 19.2608 19.7957 20.336 20.8818 21 18.8332 21 19.4633 19.9872 20.5154 21 20.0974 20.6212 21 20.7354 21 
</DataArray>

</PointData>
<CellData Scalars=" CellData">
<DataArray type="Float32" Name="radius" NumberOfComponents="1" format="ascii" >
0.0115 0.008 0.0115 0.008 0.008 0.008 0.008 0.008 0.008 0.008 0.0115 0.008 0.008 0.008 0.008 0.008 0.008 0.008 0.008 0.008 0.008 0.0115 0.008 0.0115 0.0115 0.008 
</DataArray>
<DataArray type="Float32" Name="subType" NumberOfComponents="1" format="ascii" >
1 3 2 3 3 3 3 3 3 3 2 3 3 3 3 3 3 3 3 3 3 2 3 2 2 3 
</DataArray>
<DataArray type="Float32" Name="creationTime" NumberOfComponents="1" format="ascii" >
0 10.3993 10.979 18.4282 19.0254 19.6289 20.2388 20.8553 11.5621 12.1485 12.7383 20.1874 20.7847 13.3316 13.9283 14.5286 15.1325 15.74 16.3511 16.966 17.5846 18.2069 18.8332 19.4633 20.0974 20.7354 
</DataArray>

</CellData>
<Points>
<DataArray type="Float32" Name="Coordinates" NumberOfComponents="3" format="ascii" >
0 0 -3 0.0152795 -0.0126528 -3.9998 0.0171868 -0.00640123 -4.17968 0.0204128 -0.00394854 -4.35964 0.0244813 0.00264401 -4.53947 0.0241452 0.0144449 -4.71908 0.0213742 0.0159159 -4.89906 0.00929569 0.0124199 -5.07862 -0.00185311 0.00957674 -5.25825 -0.0109642 0.00644542 -5.43799 -0.018661 0.00459279 -5.61782 -0.0260963 0.00412142 -5.79766 -0.0319507 0.00833464 -5.97752 -0.0376868 0.0120558 -6.15739 -0.0424502 0.0180742 -6.33722 -0.0466156 0.0228994 -6.51711 -0.0520426 0.0271658 -6.69698 -0.056191 0.0309799 -6.87689 -0.0571001 0.0335539 -7.05687 -0.0645326 0.0364519 -7.23669 -0.0716371 0.0382731 -7.41654 -0.0767291 0.0440157 -7.59638 -0.0820023 0.0497068 -7.77621 -0.0837707 0.0612495 -7.95583 -0.0856986 0.0726471 -8.13546 -0.0857796 0.0821652 -8.31521 -0.0859959 0.0916508 -8.49496 -0.0924143 0.101064 -8.6746 -0.0975808 0.100598 -8.85452 -0.0927702 0.104371 -9.03442 -0.0878628 0.109007 -9.21429 -0.101773 0.126219 -9.39293 -0.1125 0.140032 -9.53618 0.0152795 -0.0126528 -3.9998 0.92302 -0.199725 -4.37532 1.74152 0.0186038 -4.90672 2.63516 0.168191 -5.32985 2.75409 0.192697 -5.3952 0.0171868 -0.00640123 -4.17968 -0.135598 0.0627491 -4.24507 -0.288706 0.134927 -4.30629 -0.438049 0.209237 -4.37393 -0.599588 0.259726 -4.43521 -0.759702 0.316955 -4.49428 -0.916087 0.394668 -4.53791 -1.07035 0.473452 -4.58687 -1.233 0.514379 -4.65221 -1.39545 0.54445 -4.72367 -1.55916 0.569289 -4.79426 -1.71554 0.629538 -4.85995 -1.8716 0.691098 -4.92518 -2.02675 0.756024 -4.98931 -2.18081 0.818084 -5.05869 -2.33698 0.876398 -5.1266 -2.49912 0.929339 -5.18411 -2.67014 0.948959 -5.23672 -2.77608 0.960406 -5.27109 0.0171868 -0.00640123 -4.17968 -0.522899 0.136943 -3.54523 -0.135598 0.0627491 -4.24507 -0.517183 -0.419081 -4.47371 -0.288706 0.134927 -4.30629 -0.443952 -0.195032 -4.59042 -0.438049 0.209237 -4.37393 -0.470518 0.126975 -4.61731 -0.599588 0.259726 -4.43521 -0.625428 0.219901 -4.45028 0.0204128 -0.00394854 -4.35964 -0.894767 -0.0977268 -4.75162 -1.78419 -0.427712 -5.06791 -2.58155 -0.568809 -5.15805 0.0244813 0.00264401 -4.53947 -0.247025 -0.9587 -4.58532 -0.720058 -1.75329 -4.96593 -0.938736 -2.03037 -5.48211 0.0241452 0.0144449 -4.71908 0.186474 -0.0356486 -4.77858 0.349075 -0.0847516 -4.83816 0.503991 -0.153944 -4.89827 0.659617 -0.218305 -4.96182 0.810356 -0.286088 -5.03312 0.97154 -0.326978 -5.10202 1.133 -0.359229 -5.17477 1.29513 -0.379988 -5.25015 1.45689 -0.414188 -5.32131 1.62645 -0.440159 -5.37585 1.79708 -0.459195 -5.42991 1.96819 -0.477075 -5.48285 2.14402 -0.481886 -5.52105 2.31804 -0.455247 -5.55856 2.44814 -0.440304 -5.58898 0.0241452 0.0144449 -4.71908 0.209199 -0.0838416 -4.53841 0.186474 -0.0356486 -4.77858 0.209579 0.0110214 -4.8312 0.0213742 0.0159159 -4.89906 -0.106104 -0.954121 -5.10589 -0.482274 -1.85118 -5.33781 -0.545029 -2.14501 -5.39796 0.00929569 0.0124199 -5.07862 0.917183 -0.0245282 -5.4962 1.86877 -0.0363431 -5.80336 2.04213 -0.0221962 -5.86009 -0.00185311 0.00957674 -5.25825 -0.538061 -0.729626 -5.66576 -1.24675 -1.33775 -5.96752 -0.0109642 0.00644542 -5.43799 0.747276 -0.536771 -5.79853 1.38215 -0.969486 -6.09717 -0.018661 0.00459279 -5.61782 0.87323 -0.44678 -5.64597 1.48966 -0.687686 -5.69396 -0.0260963 0.00412142 -5.79766 -0.990797 -0.233101 -5.91202 -1.44876 -0.307673 -5.99405 -0.0319507 0.00833464 -5.97752 0.150868 0.936487 -6.30173 0.226945 1.21648 -6.26412 -0.0376868 0.0120558 -6.15739 0.579668 -0.683419 -6.52507 0.649209 -0.765848 -6.56943 -0.0424502 0.0180742 -6.33722 0.0297827 0.17097 -6.39891 0.0928659 0.330298 -6.454 0.155777 0.489554 -6.5095 0.211522 0.650916 -6.56655 0.276026 0.809524 -6.62207 0.289867 0.843271 -6.63508 -0.0466156 0.0228994 -6.51711 0.562704 -0.0404664 -6.89352 -0.0520426 0.0271658 -6.69698 0.0898481 0.111756 -6.76847 0.235627 0.180808 -6.84835 0.369818 0.240456 -6.92093 -0.056191 0.0309799 -6.87689 -0.0715774 -0.139728 -6.93187 -0.0880426 -0.261005 -6.97335 -0.0571001 0.0335539 -7.05687 0.021384 0.0666851 -7.08842 
</DataArray>
</Points>
<Lines>
<DataArray type="Int32" Name="connectivity" NumberOfComponents="1" format="ascii" >
0 1 2 3 4 5 6 7 8 9 10 11 12 13 14 15 16 17 18 19 20 21 22 23 24 25 26 27 28 29 30 31 32 33 34 35 36 37 38 39 40 41 42 43 44 45 46 47 48 49 50 51 52 53 54 55 56 57 58 59 60 61 62 63 64 65 66 67 68 69 70 71 72 73 74 75 76 77 78 79 80 81 82 83 84 85 86 87 88 89 90 91 92 93 94 95 96 97 98 99 100 101 102 103 104 105 106 107 108 109 110 111 112 113 114 115 116 117 118 119 120 121 122 123 124 125 126 127 128 129 130 131 132 133 134 135 136 137 138 
</DataArray>
<DataArray type="Int32" Name="offsets" NumberOfComponents="1" format="ascii" >
33 38 57 59 61 63 65 67 71 75 91 93 95 99 103 106 109 112 115 118 121 128 130 134 137 139 
</DataArray>

</Lines>
</Piece>
</PolyData>
</VTKFile>
