<?xml version="1.0"?><VTKFile type="PolyData" version="0.1" byte_order="LittleEndian">
<PolyData>
<Piece NumberOfLines="31" NumberOfPoints="634">
<PointData Scalars=" PointData">
<DataArray type="Float32" Name="time" NumberOfComponents="1" format="ascii" >
0 0.0192904 0.107754 0.116888 0.205892 0.227803 0.317425 0.344724 0.435004 0.462902 0.55385 0.586988 0.678644 0.711032 0.803401 0.823968 0.91699 0.963078 1 0 0.0179636 0.105577 0.123382 0.211599 0.220129 0.308904 0.317709 0.407051 0.419913 0.509852 0.525706 0.616266 0.65074 0.742042 0.752714 0.844624 0.858781 0.951329 0.979864 1 0 0.0128186 0.0857333 0.106352 0.179799 0.208244 0.282275 0.293983 0.36851 0.378972 0.453994 0.481145 0.556765 0.575468 0.651645 0.658592 0.735264 0.755176 0.832426 0.845868 0.923665 0.942433 1 0 0.0177259 0.0987635 0.122109 0.20373 0.225597 0.307801 0.313463 0.396165 0.438843 0.522261 0.565216 0.649362 0.671534 0.756298 0.765646 0.85096 0.866274 0.95218 0.97882 1 0 0.013474 0.0987942 0.124389 0.210337 0.221368 0.307868 0.340906 0.428092 0.456956 0.54215 0.630503 0.645444 0.734402 0.771107 0.860806 0.878744 0.969084 1 0 0.020666 0.127747 0.140298 0.248064 0.279298 0.387865 0.408691 0.51801 0.546104 0.656227 0.679479 0.790388 0.827585 0.939374 0.979101 1 0 0.0185381 0.120354 0.143693 0.24622 0.271499 0.374757 0.403768 0.507787 0.526593 0.631325 0.673496 0.779086 0.805313 0.911679 0.941234 1 0 0.0183017 0.105261 0.136801 0.224431 0.235011 0.323201 0.34217 0.430975 0.445802 0.535206 0.550232 0.640243 0.658194 0.748837 0.76347 0.854734 0.866518 0.958393 0.987626 1 0 0.0192373 0.105237 0.133921 0.220565 0.246493 0.332819 0.420593 0.431095 0.519433 0.54199 0.630968 0.670732 0.760459 0.786315 0.87672 0.886524 0.977522 1 0 0.0163221 0.0909479 0.109912 0.185066 0.20597 0.281671 0.292296 0.368491 0.391685 0.468454 0.480482 0.557766 0.572915 0.65074 0.676267 0.754701 0.765701 0.844665 0.850575 0.930047 0.950037 1 0 0.0160105 0.0893692 0.0972613 0.171086 0.194757 0.269145 0.289569 0.364509 0.37883 0.454294 0.472672 0.548691 0.569934 0.646532 0.659031 0.736163 0.742332 0.819967 0.846066 0.924331 0.932447 1 0 0.0171803 0.0923439 0.114797 0.190502 0.195353 0.271509 0.288529 0.365208 0.390676 0.467934 0.48281 0.560594 0.575354 0.653669 0.670834 0.740822 0.820098 0.832433 0.912245 0.922579 1 0 0.0151215 0.089787 0.113407 0.188615 0.202412 0.278115 0.296404 0.372634 0.386914 0.463654 0.468794 0.545998 0.556464 0.634169 0.650802 0.729049 0.753772 0.832615 0.839473 0.918815 0.927418 1 0 0.0174 0.0984397 0.103582 0.18511 0.204547 0.286652 0.296307 0.37894 0.414005 0.497319 0.513792 0.597688 0.612636 0.697114 0.710502 0.795558 0.813343 0.899012 0.921407 1 0 0.0186903 0.109312 0.12335 0.214588 0.215093 0.291958 0.384196 0.410581 0.50353 0.549945 0.643737 0.667138 0.761644 0.776113 0.871289 0.911942 1 0 0.0141811 0.0838524 0.0973458 0.167497 0.186945 0.257616 0.266995 0.338134 0.358793 0.430473 0.451668 0.523899 0.533426 0.606146 0.616009 0.687324 0.760973 0.774369 0.848549 0.883594 0.958445 0.976763 1 0 0.0159809 0.0950573 0.114747 0.194377 0.202037 0.282158 0.299107 0.379779 0.404122 0.479789 0.561495 0.561682 0.643863 0.669027 0.751832 0.757014 0.840335 0.859605 0.943532 0.961575 1 0 0.0175407 0.109638 0.118004 0.210675 0.22922 0.32253 0.348714 0.442715 0.467133 0.561824 0.574538 0.66986 0.702744 0.798825 0.815801 0.912555 0.926192 1 0 0.015526 0.0897206 0.100993 0.175674 0.209138 0.284437 0.301264 0.377095 0.410644 0.48711 0.508729 0.585769 0.590251 0.667772 0.672289 0.750297 0.773267 0.851878 0.862769 0.94192 0.957341 1 0 0.0165679 0.0933361 0.109439 0.18673 0.204337 0.282165 0.29215 0.370478 0.401848 0.480806 0.497579 0.577091 0.590765 0.670819 0.678565 0.759135 0.77591 0.857055 0.877016 0.958762 0.976378 1 0 0.0180763 0.109507 0.122819 0.214822 0.231787 0.324388 0.336287 0.429466 0.440647 0.534407 0.55109 0.645469 0.676392 0.771477 0.785539 0.881244 0.907015 1 0 0.0202805 0.118095 0.148348 0.246879 0.290595 0.389928 0.415962 0.498949 0.599468 0.610367 0.711527 0.728109 0.82995 0.867521 0.9693 1 0 0.0206975 0.116412 0.130916 0.227252 0.258746 0.355807 0.364222 0.461886 0.486753 0.585122 0.602986 0.702028 0.703323 0.802951 0.814373 0.914652 0.946922 1 0 0.0164262 0.102151 0.187992 0.278873 0.296997 0.388527 0.405256 0.497436 0.518346 0.607397 0.700804 0.729151 0.823304 0.845272 0.940143 0.965922 1 0 0.0154078 0.0969798 0.0996723 0.181708 0.194577 0.277137 0.293322 0.376433 0.390215 0.473869 0.487665 0.571869 0.602023 0.683909 0.769232 0.790347 0.876282 0.905637 0.992242 1 0 0.0176979 0.101691 0.10917 0.1937 0.210284 0.295413 0.308148 0.39386 0.414082 0.500429 0.525303 0.612324 0.642614 0.730349 0.747403 0.835782 0.873314 0.962474 0.993962 1 0 0.0144709 0.106944 0.123498 0.216606 0.235179 0.328941 0.365729 0.460262 0.472175 0.567342 0.57808 0.673881 0.675154 0.77154 0.797617 0.894747 0.931536 1 0 0.0186623 0.109524 0.138038 0.229553 0.264519 0.356731 0.375864 0.468694 0.507853 0.601422 0.606847 0.700974 0.742147 0.837042 0.848993 0.944498 0.968711 1 0 0.0178285 0.104688 0.120962 0.208412 0.210156 0.298122 0.303609 0.392117 0.431925 0.521184 0.542624 0.632536 0.677254 0.767967 0.774047 0.86534 0.905622 0.997709 1 0 0.0154261 0.0930688 0.123492 0.201746 0.210118 0.288866 0.301302 0.380572 0.392191 0.471986 0.489023 0.569381 0.58119 0.662088 0.680461 0.761944 0.77228 0.854308 0.871855 0.954478 0.980957 1 0 0.0206558 0.112672 0.148872 0.241601 0.254609 0.34793 0.36724 0.461195 0.461324 0.555812 0.58872 0.683935 0.695058 0.790884 0.797545 0.893964 0.896126 0.993119 1 
</DataArray>

</PointData>
<CellData Scalars=" CellData">
<DataArray type="Float32" Name="radius" NumberOfComponents="1" format="ascii" >
0.0383864 0.042797 0.0417517 0.0358329 0.0460653 0.048184 0.0358249 0.0359083 0.0394303 0.039088 0.0395461 0.0438322 0.0428481 0.0469971 0.0416844 0.0440531 0.0387511 0.0380755 0.047985 0.0396991 0.0319398 0.0431948 0.0329239 0.0380393 0.0378167 0.0421409 0.0380851 0.0402766 0.0377883 0.0407092 0.0378905 
</DataArray>
<DataArray type="Float32" Name="subType" NumberOfComponents="1" format="ascii" >
1 4 4 4 4 4 4 4 4 4 4 4 4 4 4 4 4 4 4 4 4 4 4 4 4 4 4 4 4 4 4 
</DataArray>
<DataArray type="Float32" Name="creationTime" NumberOfComponents="1" format="ascii" >
0 0 0 0 0 0 0 0 0 0 0 0 0 0 0 0 0 0 0 0 0 0 0 0 0 0 0 0 0 0 0 
</DataArray>

</CellData>
<Points>
<DataArray type="Float32" Name="Coordinates" NumberOfComponents="3" format="ascii" >
0 0 -3 0.0766353 0.0773595 -3.0105 0.425718 0.432709 -3.05372 0.461468 0.469362 -3.059 0.786227 0.845062 -3.11715 0.871538 0.932301 -3.1297 1.2833 1.20118 -3.21999 1.41084 1.27952 -3.24494 1.80351 1.56987 -3.35223 1.92506 1.65302 -3.39705 2.32333 1.88631 -3.5893 2.46372 1.97572 -3.66161 2.82418 2.23693 -3.88929 2.95108 2.32685 -3.97168 3.29755 2.56977 -4.23805 3.37145 2.62925 -4.29555 3.69061 2.90967 -4.55919 3.84741 3.05659 -4.68027 3.99089 3.16819 -4.75647 0 0 -3 0.099423 -0.01875 -3.01859 0.572386 -0.124252 -3.14178 0.668694 -0.143031 -3.16683 1.13619 -0.212451 -3.33001 1.18125 -0.219145 -3.34573 1.62789 -0.32665 -3.54311 1.67147 -0.337892 -3.56355 2.07574 -0.477849 -3.82237 2.13458 -0.498134 -3.85805 2.53826 -0.614538 -4.12914 2.60976 -0.641018 -4.17276 3.00005 -0.762125 -4.46086 3.14722 -0.806994 -4.5716 3.50436 -0.956601 -4.88794 3.54485 -0.97361 -4.9262 3.88357 -1.12829 -5.25988 3.93558 -1.15192 -5.31114 4.26088 -1.33047 -5.64625 4.36173 -1.38595 -5.74789 4.42912 -1.4208 -5.82501 0 0 -3 0.0634641 -0.054153 -3.0286 0.410633 -0.331932 -3.25732 0.508449 -0.410198 -3.32177 0.799458 -0.712323 -3.59386 0.902038 -0.831967 -3.70505 1.15779 -1.13498 -4.00964 1.19961 -1.18172 -4.05736 1.51604 -1.42838 -4.35574 1.5615 -1.46321 -4.39592 1.85694 -1.70445 -4.71922 1.94309 -1.78566 -4.85512 2.18217 -2.01082 -5.23213 2.24075 -2.06754 -5.32451 2.46421 -2.30413 -5.7041 2.4846 -2.32542 -5.7387 2.70675 -2.55958 -6.12056 2.76527 -2.61872 -6.21963 3.01585 -2.80649 -6.60945 3.05752 -2.83636 -6.67936 3.22196 -3.02229 -7.1134 3.25885 -3.07116 -7.2168 3.37956 -3.19516 -7.54103 0 0 -3 0.078069 -0.0761223 -2.98762 0.405054 -0.450543 -2.93386 0.498791 -0.55808 -2.91807 0.862013 -0.897457 -2.97185 0.959928 -0.986744 -2.98787 1.32332 -1.32589 -3.04199 1.34942 -1.34793 -3.0454 1.72903 -1.66853 -3.10119 1.9061 -1.84479 -3.16106 2.26043 -2.16843 -3.30143 2.44958 -2.32515 -3.37478 2.74654 -2.68803 -3.54836 2.84058 -2.76797 -3.59307 3.13402 -3.08434 -3.84565 3.16648 -3.12002 -3.87201 3.43374 -3.45473 -4.12997 3.48202 -3.51416 -4.17619 3.71063 -3.80388 -4.51354 3.7806 -3.89548 -4.61634 3.82487 -3.96139 -4.70976 0 0 -3 -0.0627427 -0.0472808 -3.01017 -0.462689 -0.338839 -3.08115 -0.586425 -0.421419 -3.09544 -1.00675 -0.683212 -3.16467 -1.06045 -0.716823 -3.17353 -1.43226 -1.02035 -3.31362 -1.57149 -1.13525 -3.3736 -1.94454 -1.427 -3.53396 -2.06745 -1.52276 -3.58794 -2.4684 -1.74287 -3.74889 -2.87389 -1.97075 -3.93232 -2.94353 -2.01025 -3.95862 -3.3206 -2.2684 -4.16155 -3.45987 -2.37645 -4.26707 -3.75432 -2.5895 -4.61046 -3.81483 -2.62904 -4.67902 -4.12267 -2.81867 -5.02439 -4.22694 -2.8841 -5.14225 0 0 -3 -0.0908632 -0.0325951 -2.99247 -0.559446 -0.202626 -2.95349 -0.6143 -0.222034 -2.94825 -1.0737 -0.419122 -2.93801 -1.20695 -0.474691 -2.93674 -1.66001 -0.68346 -2.97071 -1.74745 -0.721473 -2.97752 -2.2288 -0.853486 -3.00703 -2.35273 -0.884881 -3.01388 -2.84018 -0.970101 -3.08548 -2.94239 -0.988639 -3.10209 -3.41798 -1.1088 -3.19891 -3.57786 -1.14678 -3.22885 -4.05264 -1.23616 -3.35767 -4.22261 -1.24968 -3.40509 -4.31006 -1.25682 -3.43576 0 0 -3 -0.0843813 -0.00183481 -3.03492 -0.520676 -0.0497917 -3.27439 -0.616292 -0.0606045 -3.33592 -1.02357 -0.0572268 -3.62594 -1.12361 -0.0550549 -3.69721 -1.52265 -0.0757905 -3.99776 -1.63149 -0.0837078 -4.08541 -2.0556 -0.113652 -4.34853 -2.1332 -0.1249 -4.3929 -2.53876 -0.180453 -4.68002 -2.6984 -0.194921 -4.80048 -3.08512 -0.225077 -5.11598 -3.18084 -0.231812 -5.19411 -3.52778 -0.234016 -5.55414 -3.62171 -0.23559 -5.65579 -3.79266 -0.240378 -5.87055 0 0 -3 -0.0343453 0.0963147 -3.02633 -0.182726 0.557505 -3.14996 -0.239318 0.720252 -3.20425 -0.349476 1.16445 -3.40563 -0.361754 1.21869 -3.42862 -0.538675 1.63413 -3.64335 -0.572385 1.72042 -3.69724 -0.726747 2.11913 -3.95649 -0.753895 2.18378 -4.00128 -0.954543 2.55679 -4.26698 -0.984316 2.61954 -4.31379 -1.13668 2.99761 -4.60337 -1.16628 3.07195 -4.66228 -1.35947 3.41899 -4.96599 -1.38945 3.4726 -5.01794 -1.5421 3.75942 -5.39799 -1.56099 3.79373 -5.44903 -1.71644 3.97282 -5.88922 -1.77563 4.02171 -6.02785 -1.79947 4.04214 -6.08703 0 0 -3 -0.108983 -0.0267811 -3.00073 -0.602849 -0.104488 -3.00833 -0.768069 -0.117381 -3.0202 -1.25127 -0.193238 -3.12393 -1.39702 -0.212791 -3.14837 -1.86199 -0.281755 -3.30207 -2.3029 -0.430053 -3.48537 -2.35547 -0.448685 -3.50649 -2.76042 -0.572542 -3.77233 -2.8634 -0.598785 -3.84225 -3.26901 -0.701641 -4.11595 -3.44857 -0.739396 -4.24182 -3.86518 -0.797052 -4.51221 -3.99274 -0.807153 -4.57726 -4.43375 -0.855079 -4.80793 -4.48211 -0.859288 -4.8317 -4.94027 -0.876133 -5.03122 -5.05064 -0.889145 -5.08406 0 0 -3 -0.108535 -0.0113181 -3.01156 -0.587847 -0.0717632 -3.14042 -0.704647 -0.0992489 -3.18083 -1.1776 -0.117678 -3.34201 -1.30816 -0.123483 -3.38807 -1.77387 -0.134153 -3.56974 -1.83904 -0.135625 -3.59512 -2.30511 -0.133412 -3.77614 -2.44438 -0.134743 -3.83609 -2.85907 -0.139783 -4.11539 -2.92371 -0.142391 -4.1591 -3.33459 -0.156582 -4.44367 -3.41111 -0.156044 -4.50436 -3.80177 -0.159453 -4.8164 -3.92956 -0.163963 -4.91809 -4.28586 -0.0902876 -5.26104 -4.33763 -0.0831217 -5.30744 -4.70097 -0.0339856 -5.64739 -4.72811 -0.0307277 -5.67277 -5.0336 0.154425 -6.02262 -5.10521 0.199989 -6.11479 -5.28846 0.301723 -6.34638 0 0 -3 0.0238358 -0.0983387 -3.04187 0.120231 -0.552553 -3.22733 0.127295 -0.602343 -3.24594 0.210605 -1.06683 -3.4112 0.235939 -1.21212 -3.4725 0.215586 -1.64515 -3.72163 0.212092 -1.76377 -3.78963 0.203961 -2.1735 -4.07608 0.209302 -2.25194 -4.12978 0.152845 -2.60248 -4.48182 0.141604 -2.68996 -4.56514 0.135237 -3.0419 -4.92023 0.132022 -3.13949 -5.01944 0.124989 -3.48285 -5.38284 0.129757 -3.53694 -5.44335 0.166436 -3.86868 -5.81565 0.169341 -3.89524 -5.84523 0.206172 -4.21193 -6.2304 0.220096 -4.31924 -6.35813 0.324723 -4.53251 -6.7981 0.335383 -4.55463 -6.84356 0.388349 -4.7494 -7.22195 0 0 -3 -0.0906201 0.0675142 -3.01949 -0.47587 0.37376 -3.10779 -0.587906 0.467076 -3.1376 -0.964126 0.766395 -3.27496 -0.987988 0.78541 -3.28442 -1.35928 1.08764 -3.42864 -1.44154 1.15599 -3.45968 -1.81374 1.46006 -3.59754 -1.93709 1.56134 -3.64111 -2.32593 1.84887 -3.76811 -2.40218 1.9026 -3.79056 -2.80358 2.1786 -3.90326 -2.87953 2.2289 -3.92861 -3.29613 2.45863 -4.08246 -3.38594 2.51095 -4.11593 -3.76689 2.68875 -4.2583 -4.23297 2.84952 -4.34151 -4.30547 2.8732 -4.35547 -4.75873 3.03504 -4.491 -4.81662 3.05636 -4.5099 -5.25042 3.20395 -4.659 0 0 -3 0.0693773 0.0730475 -3.01314 0.422751 0.41506 -3.10344 0.533618 0.523117 -3.13295 0.88746 0.860984 -3.23611 0.951949 0.923437 -3.25339 1.32236 1.24304 -3.3566 1.41133 1.31979 -3.38275 1.78931 1.63986 -3.45126 1.85951 1.70029 -3.46284 2.21697 2.04296 -3.53213 2.24087 2.06582 -3.5367 2.62302 2.36862 -3.64752 2.67488 2.40948 -3.66186 3.03655 2.71534 -3.82201 3.11211 2.78175 -3.85744 3.49407 3.03936 -4.05173 3.61498 3.1175 -4.11533 4.00511 3.33954 -4.33555 4.03907 3.35823 -4.35496 4.4148 3.56539 -4.61168 4.45315 3.59075 -4.64009 4.75108 3.78548 -4.92283 0 0 -3 -0.0863557 0.0638132 -3.00865 -0.516396 0.31272 -3.06442 -0.543661 0.328354 -3.06798 -0.935593 0.616152 -3.18443 -1.03204 0.679538 -3.21254 -1.37149 1.01636 -3.35857 -1.41215 1.05552 -3.37432 -1.70662 1.40387 -3.57912 -1.83241 1.55177 -3.66251 -2.1565 1.87488 -3.86391 -2.20986 1.94304 -3.91095 -2.49987 2.23403 -4.19594 -2.54271 2.29058 -4.24932 -2.76961 2.57404 -4.59307 -2.80656 2.61872 -4.64669 -3.05425 2.86191 -5.00657 -3.10592 2.91375 -5.08068 -3.27768 3.1681 -5.47541 -3.32359 3.23322 -5.5784 -3.43337 3.42882 -5.97471 0 0 -3 -0.039045 0.0930872 -3.0228 -0.208796 0.552808 -3.12201 -0.240502 0.621334 -3.13807 -0.430294 1.06914 -3.25402 -0.431305 1.07163 -3.25466 -0.579205 1.45582 -3.33237 -0.778785 1.89534 -3.4627 -0.8348 2.02137 -3.49846 -1.03897 2.45863 -3.62929 -1.1407 2.67606 -3.69376 -1.33708 3.09663 -3.87965 -1.38612 3.19766 -3.93288 -1.56493 3.61217 -4.14784 -1.59239 3.67477 -4.1817 -1.77042 4.0853 -4.40478 -1.82419 4.26729 -4.5007 -1.8995 4.64115 -4.75554 0 0 -3 -0.0982123 -0.0259305 -3.01054 -0.588827 -0.101802 -3.07005 -0.683882 -0.110531 -3.08425 -1.16509 -0.144571 -3.21571 -1.29685 -0.153828 -3.25606 -1.75648 -0.180743 -3.45103 -1.81702 -0.183422 -3.47751 -2.27005 -0.180292 -3.68907 -2.40222 -0.184927 -3.74766 -2.86114 -0.186902 -3.94613 -2.99629 -0.186197 -4.00465 -3.4432 -0.100311 -4.21176 -3.50179 -0.0891571 -4.23937 -3.9055 -0.114186 -4.5333 -3.95997 -0.118041 -4.57312 -4.33318 -0.108403 -4.88591 -4.72862 -0.117231 -5.19177 -4.80081 -0.118963 -5.24651 -5.18168 -0.147475 -5.5692 -5.35273 -0.154229 -5.73043 -5.72977 -0.194688 -6.05632 -5.82017 -0.203253 -6.13763 -5.93335 -0.203873 -6.2426 0 0 -3 -0.0852891 -0.0296364 -3.04611 -0.425856 -0.29228 -3.30113 -0.510495 -0.356138 -3.36556 -0.858561 -0.577559 -3.64809 -0.89182 -0.598827 -3.67531 -1.23586 -0.810686 -3.96984 -1.30979 -0.85702 -4.02899 -1.65894 -1.0781 -4.31045 -1.76438 -1.1456 -4.39365 -2.06997 -1.34887 -4.68016 -2.38578 -1.58731 -4.9858 -2.38649 -1.58785 -4.9865 -2.71097 -1.79927 -5.30275 -2.80782 -1.86776 -5.39865 -3.12566 -2.0725 -5.72583 -3.14549 -2.08528 -5.74624 -3.44003 -2.32197 -6.07369 -3.50901 -2.38007 -6.1454 -3.79657 -2.62428 -6.47354 -3.85581 -2.68282 -6.54089 -3.98275 -2.79933 -6.68967 0 0 -3 -0.0492396 0.0812712 -3.01002 -0.293363 0.509797 -3.0923 -0.315477 0.548601 -3.09974 -0.608223 0.94976 -3.1578 -0.660415 1.03301 -3.17482 -0.858566 1.47735 -3.29014 -0.919949 1.59973 -3.31835 -1.14618 2.03269 -3.42498 -1.19897 2.14413 -3.46419 -1.4012 2.57904 -3.60548 -1.42844 2.63617 -3.62717 -1.60012 3.03955 -3.86761 -1.66064 3.17259 -3.95792 -1.84875 3.54029 -4.23972 -1.88415 3.60567 -4.28686 -2.09422 3.91594 -4.61793 -2.12867 3.95828 -4.66213 -2.29265 4.18106 -4.92135 0 0 -3 -0.0947928 -0.0354247 -3.02796 -0.544047 -0.200349 -3.17278 -0.61116 -0.225977 -3.19671 -1.06975 -0.357365 -3.3465 -1.27446 -0.417597 -3.41171 -1.7146 -0.508732 -3.63072 -1.81205 -0.526291 -3.68165 -2.21375 -0.593931 -3.97159 -2.38867 -0.627583 -4.10121 -2.76878 -0.737944 -4.40671 -2.86492 -0.758756 -4.5075 -3.20255 -0.847068 -4.86556 -3.22242 -0.852169 -4.88606 -3.53715 -0.974227 -5.2549 -3.55527 -0.981065 -5.27654 -3.82606 -1.12495 -5.67148 -3.90536 -1.16709 -5.78743 -4.15641 -1.23269 -6.21483 -4.19073 -1.24179 -6.27403 -4.41192 -1.26229 -6.72198 -4.45732 -1.26902 -6.80751 -4.58522 -1.29995 -7.04088 0 0 -3 -0.106901 -0.0140481 -3.00992 -0.595605 -0.0796028 -3.09281 -0.69652 -0.0999856 -3.11089 -1.18207 -0.178086 -3.20113 -1.29425 -0.19043 -3.21326 -1.79152 -0.230712 -3.24648 -1.85537 -0.233301 -3.24882 -2.3445 -0.249164 -3.35128 -2.53907 -0.256719 -3.39446 -3.0264 -0.270959 -3.50539 -3.12836 -0.282076 -3.53154 -3.6054 -0.313833 -3.67792 -3.68701 -0.319972 -3.70331 -4.14645 -0.402068 -3.88268 -4.1902 -0.410502 -3.90115 -4.60132 -0.502272 -4.17052 -4.68608 -0.529095 -4.22398 -5.03522 -0.631294 -4.56699 -5.12333 -0.651149 -4.64981 -5.49923 -0.733022 -4.96918 -5.57925 -0.749632 -5.03881 -5.68517 -0.767433 -5.13434 0 0 -3 -0.0908347 -0.0247737 -3.03116 -0.526047 -0.209468 -3.19388 -0.589295 -0.232369 -3.22112 -1.02582 -0.392944 -3.4046 -1.10486 -0.424183 -3.43956 -1.53896 -0.538161 -3.65993 -1.59479 -0.552702 -3.68776 -2.03069 -0.709199 -3.87618 -2.083 -0.727565 -3.8986 -2.5222 -0.868745 -4.09141 -2.59982 -0.893882 -4.12615 -3.03845 -1.03369 -4.32122 -3.17905 -1.08303 -4.38783 -3.61261 -1.18053 -4.61701 -3.67859 -1.19534 -4.64632 -4.10709 -1.29534 -4.88379 -4.22186 -1.32598 -4.94612 -4.64382 -1.38121 -5.17316 0 0 -3 0.0235108 -0.0993308 -3.02 0.133621 -0.575212 -3.12683 0.166502 -0.721867 -3.16079 0.29535 -1.17169 -3.33703 0.352444 -1.37042 -3.41489 0.472141 -1.75258 -3.71426 0.504012 -1.85158 -3.79321 0.627082 -2.14015 -4.06481 0.795979 -2.43729 -4.42975 0.814543 -2.46951 -4.46896 0.975774 -2.76915 -4.83533 1.00666 -2.8151 -4.89539 1.19868 -3.01493 -5.31155 1.26875 -3.07677 -5.46974 1.45751 -3.24345 -5.89677 1.51734 -3.29165 -6.02441 0 0 -3 0.0814346 -0.0697976 -3.01633 0.435218 -0.411218 -3.10727 0.488265 -0.463839 -3.11827 0.862806 -0.77272 -3.2379 0.98591 -0.868838 -3.284 1.41717 -1.0861 -3.41366 1.45436 -1.10501 -3.42491 1.82908 -1.32993 -3.6678 1.91654 -1.39494 -3.73274 2.25641 -1.60505 -4.03331 2.31596 -1.64299 -4.0899 2.63696 -1.85969 -4.40614 2.64114 -1.86244 -4.41031 2.9549 -2.07341 -4.7375 2.99071 -2.0974 -4.77501 3.26194 -2.34431 -5.11482 3.34831 -2.42354 -5.22414 3.48999 -2.55169 -5.40486 0 0 -3 0.0474222 0.0711393 -3.03318 0.321189 0.419321 -3.21028 0.569755 0.774388 -3.40463 0.835555 1.14234 -3.61429 0.888591 1.21531 -3.65593 1.10917 1.60829 -3.87253 1.14955 1.67979 -3.91189 1.34082 2.05374 -4.18315 1.37618 2.14073 -4.246 1.55576 2.47101 -4.54369 1.72533 2.80948 -4.87031 1.771 2.91549 -4.96788 1.93313 3.24987 -5.30239 1.95859 3.32816 -5.38443 2.06756 3.66166 -5.74067 2.09769 3.75205 -5.83678 2.13314 3.87022 -5.96585 0 0 -3 0.0538631 -0.0768471 -3.01307 0.397038 -0.431815 -3.09199 0.408339 -0.44359 -3.09411 0.764192 -0.787026 -3.16773 0.820657 -0.839844 -3.17935 1.18141 -1.17807 -3.25325 1.25185 -1.24385 -3.26923 1.59228 -1.59365 -3.37761 1.64886 -1.65013 -3.39853 1.97587 -2.00666 -3.52484 2.02669 -2.06804 -3.54497 2.33493 -2.43213 -3.69473 2.4455 -2.56429 -3.74081 2.68769 -2.9702 -3.83796 2.92578 -3.40267 -3.91723 2.9767 -3.51068 -3.94793 3.27593 -3.88267 -4.09651 3.37773 -4.00927 -4.14707 3.66921 -4.37159 -4.33083 3.69433 -4.40484 -4.34686 0 0 -3 0.101049 -0.00114035 -3.03108 0.571851 0.046441 -3.19258 0.613866 0.0492279 -3.2066 1.08024 0.0202204 -3.38452 1.17133 0.0148165 -3.41958 1.62094 -0.00788482 -3.63714 1.68802 -0.0113087 -3.66947 2.1416 -0.0260482 -3.87936 2.24566 -0.0215837 -3.9338 2.67185 0.0304373 -4.19003 2.79504 0.0531288 -4.25999 3.21649 0.115894 -4.52161 3.36267 0.135435 -4.61267 3.77612 0.213457 -4.88281 3.85489 0.225533 -4.93781 4.23928 0.279031 -5.25306 4.39834 0.295575 -5.39133 4.76031 0.32204 -5.73524 4.88178 0.327281 -5.86228 4.90488 0.327532 -5.88679 0 0 -3 -0.0228291 -0.0742357 -3.01145 -0.0986352 -0.564124 -3.07674 -0.113952 -0.651092 -3.08934 -0.259515 -1.1212 -3.17772 -0.288716 -1.21454 -3.19539 -0.507925 -1.63419 -3.35616 -0.591903 -1.79622 -3.42592 -0.814136 -2.20612 -3.60645 -0.841948 -2.25759 -3.62928 -1.1117 -2.63721 -3.81127 -1.1401 -2.68162 -3.83085 -1.38877 -3.08321 -3.99484 -1.39205 -3.08854 -3.99699 -1.62412 -3.48679 -4.19074 -1.67974 -3.59515 -4.2484 -1.90002 -4.01993 -4.39346 -1.98341 -4.18011 -4.44781 -2.13845 -4.47829 -4.54487 0 0 -3 -0.0835463 0.0513244 -3.03165 -0.440054 0.318241 -3.25893 -0.542786 0.40764 -3.33574 -0.83116 0.678365 -3.64159 -0.95479 0.770827 -3.75289 -1.2894 0.969974 -4.06654 -1.36143 1.0101 -4.12893 -1.70987 1.19367 -4.43697 -1.86387 1.27434 -4.55491 -2.20912 1.45582 -4.86775 -2.22897 1.46564 -4.88633 -2.57248 1.56861 -5.23475 -2.7225 1.60354 -5.38878 -3.06496 1.62114 -5.75266 -3.10795 1.6242 -5.7983 -3.42035 1.57757 -6.18589 -3.4997 1.56834 -6.28374 -3.59985 1.56804 -6.41227 0 0 -3 -0.0926739 -0.0423234 -3.01502 -0.558649 -0.213243 -3.07547 -0.644662 -0.248045 -3.08583 -1.0945 -0.447822 -3.17378 -1.10343 -0.451816 -3.17554 -1.55396 -0.648526 -3.2668 -1.58179 -0.660685 -3.27345 -2.02559 -0.849301 -3.40562 -2.22326 -0.934172 -3.46784 -2.66738 -1.11812 -3.60538 -2.77408 -1.16349 -3.63497 -3.20894 -1.38499 -3.74376 -3.4255 -1.49141 -3.79917 -3.8761 -1.68146 -3.90331 -3.90639 -1.69332 -3.91093 -4.33957 -1.92031 -4.01501 -4.53022 -2.01849 -4.06261 -4.96734 -2.20134 -4.22226 -4.97808 -2.20602 -4.22635 0 0 -3 0.0868341 -0.0158018 -3.04632 0.510852 -0.0776626 -3.30396 0.673888 -0.101076 -3.40863 1.07951 -0.211197 -3.67946 1.12222 -0.223461 -3.70893 1.46522 -0.35469 -4.04824 1.51958 -0.375949 -4.10103 1.84428 -0.515996 -4.45452 1.89357 -0.531867 -4.50604 2.23507 -0.599209 -4.86498 2.31044 -0.610193 -4.93924 2.63446 -0.649735 -5.31799 2.6809 -0.6609 -5.3735 2.95164 -0.760416 -5.7819 3.01292 -0.787122 -5.8732 3.24323 -0.915546 -6.29801 3.27231 -0.931428 -6.35184 3.49032 -1.04128 -6.7882 3.53118 -1.06558 -6.88357 3.7023 -1.14696 -7.34628 3.75748 -1.1734 -7.49369 3.80948 -1.19384 -7.59374 0 0 -3 0.0925128 0.0642098 -2.99876 0.507569 0.342942 -2.99269 0.671451 0.449941 -3.00211 1.0866 0.727518 -3.02667 1.14475 0.766277 -3.02884 1.5812 1.00598 -3.07407 1.67148 1.05495 -3.08334 2.09999 1.30157 -3.15782 2.10058 1.30191 -3.15792 2.4882 1.58987 -3.28765 2.62639 1.68533 -3.33106 3.02147 1.95095 -3.48388 3.0675 1.98181 -3.50174 3.44282 2.21387 -3.73685 3.46846 2.2312 -3.75243 3.78271 2.47906 -4.05212 3.78978 2.48462 -4.05875 4.1097 2.72852 -4.35567 4.13217 2.74576 -4.37686 
</DataArray>
</Points>
<Lines>
<DataArray type="Int32" Name="connectivity" NumberOfComponents="1" format="ascii" >
0 1 2 3 4 5 6 7 8 9 10 11 12 13 14 15 16 17 18 19 20 21 22 23 24 25 26 27 28 29 30 31 32 33 34 35 36 37 38 39 40 41 42 43 44 45 46 47 48 49 50 51 52 53 54 55 56 57 58 59 60 61 62 63 64 65 66 67 68 69 70 71 72 73 74 75 76 77 78 79 80 81 82 83 84 85 86 87 88 89 90 91 92 93 94 95 96 97 98 99 100 101 102 103 104 105 106 107 108 109 110 111 112 113 114 115 116 117 118 119 120 121 122 123 124 125 126 127 128 129 130 131 132 133 134 135 136 137 138 139 140 141 142 143 144 145 146 147 148 149 150 151 152 153 154 155 156 157 158 159 160 161 162 163 164 165 166 167 168 169 170 171 172 173 174 175 176 177 178 179 180 181 182 183 184 185 186 187 188 189 190 191 192 193 194 195 196 197 198 199 200 201 202 203 204 205 206 207 208 209 210 211 212 213 214 215 216 217 218 219 220 221 222 223 224 225 226 227 228 229 230 231 232 233 234 235 236 237 238 239 240 241 242 243 244 245 246 247 248 249 250 251 252 253 254 255 256 257 258 259 260 261 262 263 264 265 266 267 268 269 270 271 272 273 274 275 276 277 278 279 280 281 282 283 284 285 286 287 288 289 290 291 292 293 294 295 296 297 298 299 300 301 302 303 304 305 306 307 308 309 310 311 312 313 314 315 316 317 318 319 320 321 322 323 324 325 326 327 328 329 330 331 332 333 334 335 336 337 338 339 340 341 342 343 344 345 346 347 348 349 350 351 352 353 354 355 356 357 358 359 360 361 362 363 364 365 366 367 368 369 370 371 372 373 374 375 376 377 378 379 380 381 382 383 384 385 386 387 388 389 390 391 392 393 394 395 396 397 398 399 400 401 402 403 404 405 406 407 408 409 410 411 412 413 414 415 416 417 418 419 420 421 422 423 424 425 426 427 428 429 430 431 432 433 434 435 436 437 438 439 440 441 442 443 444 445 446 447 448 449 450 451 452 453 454 455 456 457 458 459 460 461 462 463 464 465 466 467 468 469 470 471 472 473 474 475 476 477 478 479 480 481 482 483 484 485 486 487 488 489 490 491 492 493 494 495 496 497 498 499 500 501 502 503 504 505 506 507 508 509 510 511 512 513 514 515 516 517 518 519 520 521 522 523 524 525 526 527 528 529 530 531 532 533 534 535 536 537 538 539 540 541 542 543 544 545 546 547 548 549 550 551 552 553 554 555 556 557 558 559 560 561 562 563 564 565 566 567 568 569 570 571 572 573 574 575 576 577 578 579 580 581 582 583 584 585 586 587 588 589 590 591 592 593 594 595 596 597 598 599 600 601 602 603 604 605 606 607 608 609 610 611 612 613 614 615 616 617 618 619 620 621 622 623 624 625 626 627 628 629 630 631 632 633 
</DataArray>
<DataArray type="Int32" Name="offsets" NumberOfComponents="1" format="ascii" >
19 40 63 84 103 120 137 158 177 200 223 245 268 289 307 331 353 372 395 418 437 454 473 491 512 533 552 571 591 614 634 
</DataArray>

</Lines>
</Piece>
</PolyData>
</VTKFile>
