<?xml version="1.0"?><VTKFile type="PolyData" version="0.1" byte_order="LittleEndian">
<PolyData>
<Piece NumberOfLines="194" NumberOfPoints="1321">
<PointData Scalars=" PointData">
<DataArray type="Float32" Name="time" NumberOfComponents="1" format="ascii" >
0 0.600077 0.792047 0.99489 1.1866 1.40803 1.6262 1.83047 2.03819 2.2498 2.4729 2.6786 2.87985 3.1004 3.31296 3.51505 3.73031 3.93494 4.1672 4.39002 4.61531 4.8682 5.11502 5.36511 5.58748 5.84277 6.09114 6.32314 6.55794 6.78681 7.05325 7.31986 7.57253 7.81146 8.07824 8.34906 8.60728 8.88522 9.17516 9.43707 9.68707 9.93879 10.2438 10.5105 10.7997 11.0872 11.358 11.6634 11.9825 12.3006 12.5564 12.881 13.1856 13.4789 13.7556 14.0816 14.3992 14.7303 15.0388 15.3555 15.6601 15.9942 16.3122 16.6264 16.9538 17.2838 17.6053 17.9857 18.2879 18.663 19.0351 19.4356 19.8549 20.2726 20.6256 21 0.600077 2.19107 3.85736 4.56713 5.41275 6.15638 7.09662 7.84022 8.80149 9.81376 10.7306 11.7391 12.6273 13.633 14.6196 15.8901 16.9958 18.4597 19.6197 20.8664 21 14.422 16.7068 19.2609 21 15.5452 17.8111 20.3442 21 16.5403 18.7675 21 17.8089 19.9609 21 18.8208 20.8799 21 20.1405 21 0.792047 2.38508 4.05179 4.96562 5.75774 6.71368 7.63637 8.43017 9.21755 10.2092 11.3473 12.3408 13.4672 14.5266 15.4992 16.5094 17.8156 18.9043 20.0661 21 15.1608 17.6845 20.5057 21 16.2158 18.5188 21 17.4993 19.7193 21 18.7496 21 19.8345 21 20.9194 21 0.99489 2.52956 4.13573 4.57899 5.39392 6.21708 7.10827 8.08435 9.04992 10.004 10.9115 12.0793 13.0888 14.031 14.9753 16.0387 17.0137 18.1108 19.2661 20.4908 21 14.3512 16.7269 19.3827 21 15.4374 17.9644 20.7893 21 16.5433 19.0104 21 17.7512 20.3123 21 19.0871 21 20.4226 21 1.1866 2.83915 4.57166 5.22085 6.09411 6.89126 7.81854 8.77774 9.61432 10.5728 11.5103 12.5311 13.5884 14.6821 15.9268 17.1429 18.369 19.6975 21 15.3686 17.7797 20.4751 21 16.5326 18.6875 21 17.6036 19.8172 21 18.86 21 20.172 21 1.40803 3.15871 4.99255 5.04762 5.98328 6.81931 7.83124 8.7796 9.81952 10.8273 11.8362 12.7719 13.8359 14.8992 16.1053 17.4675 18.5565 19.7802 21 15.9735 18.335 20.975 21 17.2201 19.5851 21 18.3427 20.806 21 19.7128 21 1.6262 3.32894 5.1139 5.34268 6.1678 6.94226 7.83338 8.66607 9.41224 10.2464 11.3246 12.3881 13.4302 14.5029 15.8062 16.9017 18.2274 19.4948 20.7141 21 15.7006 18.292 21 16.7965 19.0315 21 17.8325 20.4481 21 19.0339 21 20.1658 21 1.83047 3.52989 5.31021 6.15851 7.05585 7.88431 8.64404 9.5363 10.4661 11.4208 12.5404 13.5377 14.7273 15.8404 17.0911 18.2501 19.6401 21 16.768 19.5678 21 17.9643 20.2602 21 19.0775 21 20.1059 21 2.03819 3.60826 5.25409 5.62404 6.42253 7.3792 8.24125 9.19471 10.1484 11.099 12.1985 13.1791 14.2968 15.412 16.5213 17.539 18.661 19.9667 21 14.4557 16.8531 19.5332 21 15.4937 17.8368 20.4561 21 16.7473 18.9578 21 17.8864 20.0081 21 19.1573 21 20.4406 21 2.2498 3.89205 5.61056 5.84124 6.65987 7.45 8.16133 8.96405 10.0096 10.9936 12.005 13.0523 14.114 15.0816 16.1478 17.2458 18.3789 19.595 20.6787 21 17.4989 19.6171 21 18.6252 20.9317 21 19.7214 21 20.7161 21 2.4729 4.09229 5.78771 6.52945 7.33132 8.11309 8.99391 9.87565 10.7391 11.526 12.6728 13.5833 14.6606 15.6608 16.84 18.037 19.1556 20.274 21 17.0227 19.5389 21 18.0989 20.386 21 19.1562 21 20.3573 21 2.6786 4.14005 5.67131 6.06069 6.78338 7.50401 8.36154 9.19156 9.9718 10.7269 11.6495 12.7728 13.5936 14.6739 15.8301 16.8582 18.0697 19.1927 20.3656 21 14.8412 17.086 19.5954 21 15.795 18.2179 20.9266 21 16.753 19.1082 21 17.9025 20.2769 21 19.0253 21 20.0903 21 2.87985 4.37289 5.9384 6.29928 7.01804 7.79807 8.57449 9.41802 10.2388 11.2004 12.0678 13.0407 13.8671 14.7914 15.758 16.7524 17.9367 18.9144 20.0746 21 15.7131 17.882 20.3067 21 16.6791 18.8334 21 17.7361 20.01 21 18.7973 21 19.9611 21 3.1004 4.63142 6.23569 6.72171 7.7031 8.58278 9.44181 10.2457 11.1772 12.0718 13.0377 13.9743 14.8478 15.8469 16.6601 17.8534 18.9525 20.1169 21 16.4706 18.8455 21 17.7896 19.9951 21 18.9834 21 20.1603 21 3.31296 4.8458 6.45071 6.93937 7.74016 8.59302 9.40704 10.2722 11.2711 12.2194 13.1674 14.1676 15.1353 16.312 17.288 18.2042 19.3666 20.5552 21 16.5512 18.8999 21 17.6164 20.0766 21 18.7602 20.9042 21 19.8612 21 3.51505 5.05583 6.66902 7.51785 8.39435 9.16057 9.9798 10.8986 11.7054 12.6784 13.6445 14.7387 15.6759 16.7372 17.7439 18.8777 19.9067 20.959 21 16.888 19.3877 21 18.0442 20.2391 21 19.0629 21 20.1604 21 3.73031 5.23246 6.8045 7.36226 8.21875 8.99003 9.68938 10.5661 11.3696 12.2416 13.2098 14.2042 15.0442 15.9925 16.9594 18.1041 19.2691 20.3451 21 17.4694 19.5038 21 18.6296 21 19.6835 21 20.6469 21 3.93494 5.44865 7.0359 7.0724 7.73638 8.46962 9.31441 10.1114 10.9887 11.8115 12.8171 13.6597 14.5854 15.5267 16.4786 17.4329 18.5164 19.6588 20.8069 21 16.5702 18.9173 21 17.4613 19.8566 21 18.4526 20.964 21 19.6047 21 20.7017 21 4.1672 5.79716 7.50348 7.88238 8.75133 9.46524 10.4408 11.3687 12.2205 13.2025 14.1132 15.2498 16.2476 17.2632 18.3588 19.4759 20.7777 21 18.1194 20.7109 21 19.2749 21 20.2311 21 4.39002 5.90377 7.49113 7.98272 8.78735 9.591 10.4389 11.3037 12.1604 12.9894 13.8137 14.7806 15.6982 16.5926 17.5101 18.674 19.7839 20.7742 21 16.807 19.116 21 17.8654 20.1289 21 18.9309 21 20.0645 21 4.61531 6.25387 7.97001 8.70267 9.36944 10.1696 11.0335 11.9301 12.8756 13.99 14.9246 16.0371 17.1453 18.342 19.3482 20.477 21 18.8648 20.8451 21 19.75 21 20.8194 21 4.8682 6.45628 8.12074 8.4112 9.20479 10.0679 10.8325 11.7387 12.5385 13.4054 14.4446 15.5308 16.6225 17.6715 18.8158 19.9359 21 18.101 20.5555 21 19.1549 21 20.3103 21 5.11502 6.77021 8.50365 9.42315 10.2968 11.2294 12.1738 12.996 14.0106 14.9977 15.9611 17.002 17.9795 19.1738 20.2983 21 20.1079 21 5.36511 6.9361 8.57881 9.00407 9.78719 10.6505 11.542 12.45 13.3474 14.2739 15.1388 15.9836 16.9187 17.9908 19.12 20.2327 21 19.794 21 20.855 21 5.58748 7.13841 8.76525 9.26893 9.98253 10.733 11.4278 12.3375 13.1192 14.0349 14.9786 15.8629 16.8195 17.7643 18.7003 19.7645 20.8577 21 18.4809 20.7421 21 19.4256 21 20.4264 21 5.84277 7.50838 9.25741 9.42706 10.3628 11.2551 12.0223 12.9484 13.8397 14.7626 15.8487 16.8107 17.9092 18.9486 19.9999 21 18.9641 21 20.1988 21 6.09114 7.56075 9.10171 9.2109 9.96436 10.7678 11.5612 12.393 13.1374 13.9463 14.9567 15.7098 16.6984 17.7654 18.5769 19.5249 20.4418 21 18.2988 20.79 21 19.3061 21 20.3891 21 6.32314 7.7977 9.34452 9.82468 10.5218 11.3398 12.056 12.8739 13.6527 14.6343 15.5599 16.5183 17.3509 18.1728 19.275 20.3549 21 17.976 20.3595 21 18.8814 21 19.9518 21 20.896 21 6.55794 8.1044 9.72584 10.0905 10.8788 11.6895 12.5182 13.3174 14.3336 15.1768 16.0876 17.2132 18.0178 19.0581 20.1613 21 19.4141 21 20.4599 21 6.78681 8.25467 9.79152 10.3287 11.0139 11.716 12.5419 13.3434 14.1508 14.9248 15.897 16.837 17.8045 18.7923 19.8072 20.8035 21 19.6878 21 20.6033 21 7.05325 8.67892 10.3828 10.4421 11.3432 12.1678 13.1515 14.2431 15.0259 15.84 16.8044 17.7054 18.7386 19.8182 21 20.4403 21 7.31986 8.90419 10.5631 11.116 12.0375 12.8232 13.6823 14.6566 15.6475 16.4939 17.399 18.3954 19.3824 20.6234 21 20.5675 21 7.57253 9.10066 10.7016 11.2997 12.1603 13.0894 13.9215 14.8102 15.7107 16.5595 17.5409 18.5625 19.5484 20.4972 21 20.2523 21 7.81146 9.47842 11.1343 11.9137 12.7574 13.6 14.413 15.3042 16.2439 17.3087 18.375 19.4722 20.6281 21 20.9013 21 8.07824 9.61964 11.2355 11.302 12.1318 13.0041 13.831 14.637 15.4522 16.3029 17.284 18.2663 19.1085 20.0847 21 20.9288 21 8.34906 9.90391 11.5324 12.9471 13.6673 14.4804 15.3896 16.1223 17.0334 17.8385 18.6975 19.7664 20.6928 21 8.60728 10.1753 11.8164 12.4753 13.2813 14.1787 15.0001 15.8517 16.7338 17.6489 18.5069 19.6041 20.5954 21 8.88522 10.637 12.4717 13.6683 14.6616 15.5488 16.5003 17.5542 18.6264 19.5898 20.6751 21 9.17516 10.6764 12.2495 12.6844 13.4835 14.2834 15.0884 15.8484 16.8097 17.6675 18.4386 19.4455 20.4139 21 9.43707 11.0635 12.4529 13.2655 14.1245 14.9515 15.7394 16.4546 17.3739 18.3774 19.331 20.353 21 9.68707 11.2517 12.8911 13.6702 14.5054 15.1845 16.1396 17.017 17.9043 18.938 19.9001 20.7533 21 9.93879 11.5113 12.8552 13.776 14.6016 15.4989 16.4544 17.2785 18.0752 19.1144 20.0633 20.9424 21 10.2438 11.9537 13.7026 14.5085 15.3826 16.307 17.2998 18.2629 19.2378 20.1539 21 10.5105 11.9835 13.4983 14.2071 15.0266 15.803 16.7815 17.5839 18.4501 19.3531 20.2225 21 10.7997 12.3775 14.0286 14.5079 15.4066 16.218 17.045 17.9849 18.8393 19.9181 20.7995 21 11.0872 12.708 14.4039 14.5682 15.5021 16.3836 17.3362 18.3906 19.4033 20.4383 21 11.358 12.8888 14.493 14.8258 15.6688 16.3296 17.1112 17.9682 18.8116 19.628 20.5592 21 11.6634 13.2949 15 15.3531 16.2072 17.2119 18.0104 18.75 19.6462 20.7061 21 11.9825 13.5784 15.2514 15.3198 16.196 17.0052 17.8009 18.6875 19.6468 20.5653 21 12.3006 13.972 15.7207 16.3419 17.2934 18.2293 19.1617 20.0996 20.983 21 12.5564 14.13 15.7792 15.9295 16.7716 17.5198 18.4205 19.3847 20.2213 21 12.881 14.5289 16.2543 16.2679 17.18 18.0583 18.9943 19.9734 20.8271 21 13.1856 14.6756 16.0548 16.7258 17.5913 18.4231 19.18 20.0805 20.8001 21 13.4789 15.1956 16.9953 17.455 18.4203 19.3056 20.0829 21 13.7556 15.27 16.856 17.4658 18.1905 18.9702 19.7248 20.5199 21 14.0816 15.6327 17.2584 17.9183 18.7212 19.5584 20.4013 21 14.3992 15.8015 17.2705 17.7075 18.4827 19.333 20.0594 20.8178 21 14.7303 16.2417 17.8242 18.4229 19.2216 19.9981 20.7587 21 15.0388 16.5853 18.2077 18.4107 19.2354 20.0404 20.8772 21 15.3555 16.8596 18.4378 18.7005 19.4109 20.2268 20.9385 21 15.6601 17.2375 18.8877 19.5143 20.2906 21 15.9942 17.6564 19.3954 20.113 20.9929 21 16.3122 17.9842 19.6491 20.6215 21 16.6264 18.2021 19.4349 20.3179 21 16.9538 18.5149 20.1495 20.4419 21 17.2838 18.8155 20.3393 21 17.6053 19.1734 20.7779 21 17.9857 19.5616 21 18.2879 19.8306 21 18.663 20.2012 21 19.0351 20.4937 21 19.4356 21 19.8549 21 20.2726 21 20.6256 21 
</DataArray>

</PointData>
<CellData Scalars=" CellData">
<DataArray type="Float32" Name="radius" NumberOfComponents="1" format="ascii" >
0.101845 0.048552 0.0477708 0.0421182 0.048433 0.0518869 0.0445318 0.0503207 0.0546828 0.0503022 0.046452 0.0442705 0.0437124 0.0509503 0.0513641 0.0515751 0.0528447 0.0458328 0.0433238 0.0478704 0.0466217 0.0534445 0.0369336 0.0460217 0.0617376 0.0427257 0.0533712 0.0542895 0.0532678 0.0634206 0.0518784 0.0519525 0.0519344 0.0461663 0.0420554 0.0501243 0.0500174 0.044106 0.049997 0.0569531 0.0489676 0.0414773 0.0404953 0.0486792 0.050304 0.0487394 0.0611294 0.0451561 0.0519767 0.0516599 0.049081 0.0509722 0.0559848 0.0457177 0.0403207 0.0494129 0.0464286 0.0501208 0.0501875 0.047091 0.0537626 0.0454205 0.051747 0.0592637 0.0452009 0.0467976 0.0434377 0.0614009 0.0540131 0.0544776 0.0505631 0.0513101 0.0465588 0.0495344 0.0553343 0.0518986 0.0470726 0.0546209 0.0488224 0.0512713 0.0572534 0.0509081 0.0460477 0.0515713 0.0575158 0.0540631 0.0475848 0.047962 0.0564149 0.0545462 0.0525611 0.041064 0.0529311 0.0618614 0.052304 0.0482144 0.0406565 0.0490103 0.0463642 0.0601397 0.0588516 0.0520139 0.0514223 0.059403 0.0578699 0.0538761 0.0536102 0.0484245 0.0547243 0.0461398 0.0522868 0.0535619 0.0494133 0.0564867 0.052586 0.043196 0.0563015 0.0412877 0.0521897 0.0487257 0.0536344 0.0558472 0.0508509 0.044594 0.0515069 0.0515769 0.0476603 0.0501646 0.0495475 0.0477734 0.0492696 0.0513981 0.051941 0.0451107 0.0466081 0.0488935 0.0550519 0.0547682 0.0478696 0.0599275 0.0463691 0.0418639 0.0495919 0.0568649 0.041974 0.0471182 0.0526559 0.0554854 0.0469767 0.0603788 0.0460652 0.0441825 0.052817 0.0543555 0.0480349 0.0534652 0.0443995 0.0448038 0.0487104 0.0477715 0.0439337 0.0460835 0.0534388 0.0510163 0.0494698 0.0492551 0.0481546 0.0533835 0.0507991 0.0579711 0.0538922 0.044316 0.0444399 0.0462999 0.0505925 0.0456811 0.0506063 0.0457144 0.0469849 0.0454608 0.0510235 0.0496429 0.0540588 0.0482479 0.0500767 0.0469641 0.0589305 0.0456933 0.0435853 0.0533548 0.0564733 0.0474918 0.0467211 0.0323541 
</DataArray>
<DataArray type="Float32" Name="subType" NumberOfComponents="1" format="ascii" >
1 2 3 3 3 3 3 3 2 3 3 3 3 3 3 2 3 3 3 3 3 3 2 3 3 3 3 3 2 3 3 3 3 2 3 3 3 3 3 2 3 3 3 3 2 3 3 3 3 3 3 2 3 3 3 3 2 3 3 3 3 2 3 3 3 3 3 3 2 3 3 3 3 3 2 3 3 3 3 2 3 3 3 3 2 3 3 3 3 2 3 3 3 3 2 3 3 3 3 3 2 3 3 3 2 3 3 3 3 2 3 3 3 2 3 3 3 2 3 2 3 3 2 3 3 3 2 3 3 2 3 3 3 2 3 3 3 3 2 3 3 2 3 3 2 3 2 3 2 3 2 3 2 3 2 2 2 2 2 2 2 2 2 2 2 2 2 2 2 2 2 2 2 2 2 2 2 2 2 2 2 2 2 2 2 2 2 2 2 2 2 2 2 2 
</DataArray>
<DataArray type="Float32" Name="creationTime" NumberOfComponents="1" format="ascii" >
0 0.600077 14.422 15.5452 16.5403 17.8089 18.8208 20.1405 0.792047 15.1608 16.2158 17.4993 18.7496 19.8345 20.9194 0.99489 14.3512 15.4374 16.5433 17.7512 19.0871 20.4226 1.1866 15.3686 16.5326 17.6036 18.86 20.172 1.40803 15.9735 17.2201 18.3427 19.7128 1.6262 15.7006 16.7965 17.8325 19.0339 20.1658 1.83047 16.768 17.9643 19.0775 20.1059 2.03819 14.4557 15.4937 16.7473 17.8864 19.1573 20.4406 2.2498 17.4989 18.6252 19.7214 20.7161 2.4729 17.0227 18.0989 19.1562 20.3573 2.6786 14.8412 15.795 16.753 17.9025 19.0253 20.0903 2.87985 15.7131 16.6791 17.7361 18.7973 19.9611 3.1004 16.4706 17.7896 18.9834 20.1603 3.31296 16.5512 17.6164 18.7602 19.8612 3.51505 16.888 18.0442 19.0629 20.1604 3.73031 17.4694 18.6296 19.6835 20.6469 3.93494 16.5702 17.4613 18.4526 19.6047 20.7017 4.1672 18.1194 19.2749 20.2311 4.39002 16.807 17.8654 18.9309 20.0645 4.61531 18.8648 19.75 20.8194 4.8682 18.101 19.1549 20.3103 5.11502 20.1079 5.36511 19.794 20.855 5.58748 18.4809 19.4256 20.4264 5.84277 18.9641 20.1988 6.09114 18.2988 19.3061 20.3891 6.32314 17.976 18.8814 19.9518 20.896 6.55794 19.4141 20.4599 6.78681 19.6878 20.6033 7.05325 20.4403 7.31986 20.5675 7.57253 20.2523 7.81146 20.9013 8.07824 20.9288 8.34906 8.60728 8.88522 9.17516 9.43707 9.68707 9.93879 10.2438 10.5105 10.7997 11.0872 11.358 11.6634 11.9825 12.3006 12.5564 12.881 13.1856 13.4789 13.7556 14.0816 14.3992 14.7303 15.0388 15.3555 15.6601 15.9942 16.3122 16.6264 16.9538 17.2838 17.6053 17.9857 18.2879 18.663 19.0351 19.4356 19.8549 20.2726 20.6256 
</DataArray>

</CellData>
<Points>
<DataArray type="Float32" Name="Coordinates" NumberOfComponents="3" format="ascii" >
0 0 -3 0.00530778 0.00109532 -3.95549 0.0136314 0.00495492 -4.2569 0.0158626 0.0177551 -4.57311 -0.00170164 0.00623236 -4.86946 -0.0778017 -0.033924 -5.19916 -0.170325 -0.109553 -5.51018 -0.251388 -0.186159 -5.7991 -0.346961 -0.280256 -6.08162 -0.451848 -0.411607 -6.34957 -0.56199 -0.525945 -6.64 -0.62981 -0.590205 -6.92819 -0.708164 -0.640011 -7.20751 -0.693567 -0.765267 -7.50186 -0.688751 -0.879906 -7.78593 -0.739531 -1.00671 -8.04084 -0.788277 -1.12252 -8.31969 -0.862406 -1.2318 -8.57639 -0.915705 -1.34642 -8.87601 -0.959696 -1.42336 -9.17261 -1.00456 -1.50835 -9.46797 -1.06598 -1.58219 -9.80016 -1.11286 -1.6732 -10.1187 -1.23537 -1.80838 -10.4011 -1.33571 -1.93475 -10.6499 -1.45279 -2.04264 -10.9476 -1.53288 -2.15646 -11.242 -1.64909 -2.26009 -11.5004 -1.77528 -2.31192 -11.7708 -1.8702 -2.36436 -12.043 -1.97584 -2.42738 -12.3579 -2.08329 -2.49557 -12.6681 -2.19496 -2.54065 -12.959 -2.35204 -2.54955 -13.2089 -2.57025 -2.53847 -13.452 -2.76372 -2.54845 -13.7176 -2.92885 -2.53193 -13.9802 -3.09653 -2.44251 -14.2516 -3.20001 -2.39945 -14.575 -3.2678 -2.34914 -14.8694 -3.37359 -2.30833 -15.1361 -3.43672 -2.23529 -15.4087 -3.51135 -2.188 -15.7445 -3.58324 -2.15904 -16.035 -3.62044 -2.12633 -16.354 -3.66943 -2.11854 -16.6679 -3.7191 -2.10817 -16.9601 -3.78093 -2.13302 -17.2844 -3.80414 -2.14304 -17.6258 -3.79366 -2.15491 -17.963 -3.80175 -2.1599 -18.2316 -3.80231 -2.12535 -18.5675 -3.81671 -2.09913 -18.8795 -3.84347 -2.07051 -19.1756 -3.85298 -2.04323 -19.4532 -3.86613 -2.02056 -19.7776 -3.88416 -2.04216 -20.0899 -3.90054 -2.05065 -20.4127 -3.89237 -2.08816 -20.7082 -3.87917 -2.11484 -21.0093 -3.87076 -2.1549 -21.2943 -3.87844 -2.20172 -21.6032 -3.91035 -2.23563 -21.8935 -3.92793 -2.24271 -22.1803 -3.96856 -2.14307 -22.4562 -4.01988 -2.00984 -22.7147 -4.0581 -1.88561 -22.9676 -4.10161 -1.74517 -23.2659 -4.15531 -1.63252 -23.4951 -4.25086 -1.51814 -23.7787 -4.34489 -1.39788 -24.0528 -4.33665 -1.24576 -24.3491 -4.30048 -1.1025 -24.6597 -4.2669 -0.955858 -24.9622 -4.21014 -0.89322 -25.2309 -4.16153 -0.790684 -25.5033 0.00530778 0.00109532 -3.95549 0.592134 -0.0593864 -4.76294 1.32732 -0.0829838 -5.44039 1.65615 -0.103694 -5.68741 2.04458 -0.133495 -5.96765 2.37905 -0.0784044 -6.20287 2.76712 -0.208943 -6.50587 3.08248 -0.250587 -6.73719 3.47587 -0.320948 -7.03146 3.87381 -0.410408 -7.33459 4.21272 -0.480243 -7.61888 4.5902 -0.497377 -7.91375 4.90783 -0.477585 -8.1737 5.23194 -0.538987 -8.48409 5.55513 -0.627111 -8.7568 5.92372 -0.743055 -9.13216 6.2356 -0.817803 -9.45243 6.55889 -0.702613 -9.91825 6.83687 -0.605375 -10.2475 7.12528 -0.505352 -10.5899 7.15608 -0.497558 -10.6262 1.65615 -0.103694 -5.68741 2.54306 -0.0649971 -5.22709 3.37692 0.006271 -4.67973 3.87198 0.0889939 -4.32171 2.04458 -0.133495 -5.96765 2.19786 -0.984865 -5.46598 2.3323 -1.84148 -4.96785 2.40593 -2.03214 -4.84152 2.37905 -0.0784044 -6.20287 2.84926 0.802834 -6.25099 3.10005 1.66749 -6.19496 2.76712 -0.208943 -6.50587 2.60232 -0.72626 -7.34564 2.44945 -0.853028 -7.74546 3.08248 -0.250587 -6.73719 2.90268 -0.577278 -7.66506 2.89612 -0.596851 -7.71622 3.47587 -0.320948 -7.03146 3.50167 -0.678413 -7.10238 0.0136314 0.00495492 -4.2569 -0.576566 0.604632 -4.79732 -1.12224 1.1339 -5.44703 -1.47499 1.37555 -5.75844 -1.77705 1.59168 -6.00855 -2.14076 1.88392 -6.25456 -2.47799 2.15606 -6.49588 -2.72663 2.46443 -6.62515 -2.96907 2.76238 -6.75136 -3.1876 3.17633 -6.91793 -3.43227 3.63758 -7.10187 -3.71708 3.99039 -7.22253 -4.03531 4.37265 -7.36173 -4.30008 4.73141 -7.51446 -4.55172 5.02871 -7.67331 -4.86863 5.26533 -7.82895 -5.25678 5.58206 -8.00871 -5.56917 5.83676 -8.15588 -5.79931 6.15851 -8.3571 -5.98259 6.42207 -8.48769 -1.47499 1.37555 -5.75844 -1.342 2.36518 -5.70416 -1.3382 3.31018 -6.03122 -1.34174 3.46958 -6.06702 -1.77705 1.59168 -6.00855 -1.33121 2.34473 -6.49243 -0.817088 2.90917 -7.08388 -2.14076 1.88392 -6.25456 -1.88015 2.72568 -5.78179 -1.74667 3.19809 -5.58009 -2.47799 2.15606 -6.49588 -2.17008 2.67008 -7.27709 -2.72663 2.46443 -6.62515 -2.53414 2.65761 -6.99149 -2.96907 2.76238 -6.75136 -2.96551 2.79891 -6.74355 0.0158626 0.0177551 -4.57311 0.873992 0.0360655 -5.08622 1.67218 0.151211 -5.67753 1.91783 0.171477 -5.78241 2.36344 0.200032 -5.96808 2.61586 0.097242 -6.35955 2.90777 0.000685151 -6.75859 3.17083 -0.174636 -7.19268 3.42826 -0.336757 -7.61004 3.66844 -0.620592 -7.93877 3.89858 -0.884964 -8.23593 4.19184 -1.26917 -8.54521 4.35755 -1.66675 -8.75839 4.48873 -2.05922 -8.89576 4.62951 -2.44043 -9.02105 4.78442 -2.85626 -9.16038 4.98372 -3.20753 -9.25143 5.20611 -3.58256 -9.37099 5.46629 -3.96097 -9.40883 5.73062 -4.34235 -9.49469 5.83778 -4.49704 -9.5293 1.91783 0.171477 -5.78241 2.06985 0.0160139 -6.75848 2.26157 -0.16598 -7.72291 2.40267 -0.306259 -8.23964 2.36344 0.200032 -5.96808 2.88274 -0.622576 -6.1997 3.21613 -1.45848 -6.63571 3.24099 -1.51445 -6.66953 2.61586 0.097242 -6.35955 3.0211 -0.816584 -6.38615 3.32834 -1.47065 -6.50964 2.90777 0.000685151 -6.75859 2.58751 -0.0838818 -7.70214 2.50311 -0.108711 -7.93729 3.17083 -0.174636 -7.19268 3.17466 -0.855555 -7.72497 3.42826 -0.336757 -7.61004 3.57577 -0.594081 -7.53851 -0.00170164 0.00623236 -4.86946 0.604244 0.783226 -5.04008 1.13303 1.45427 -5.55977 1.32213 1.70184 -5.74498 1.54811 2.00849 -6.03251 1.73265 2.25029 -6.33022 1.85931 2.5336 -6.70076 1.97303 2.78805 -7.10008 2.09171 2.99282 -7.44 2.04323 3.20121 -7.85038 1.99873 3.37602 -8.25263 1.86509 3.54069 -8.66881 1.72567 3.6977 -9.08919 1.46336 3.78028 -9.4725 1.16453 3.9233 -9.87283 0.89143 4.06553 -10.2547 0.780717 4.23224 -10.6888 0.673886 4.41448 -11.1417 0.4764 4.53569 -11.5532 1.32213 1.70184 -5.74498 1.41844 1.50893 -6.72145 1.52715 1.36804 -7.70549 1.54158 1.34798 -7.88522 1.54811 2.00849 -6.03251 1.62645 1.69643 -6.97933 1.65491 1.2944 -7.85298 1.73265 2.25029 -6.33022 2.10504 1.75277 -7.11367 2.30376 1.55023 -7.51644 1.85931 2.5336 -6.70076 1.85809 2.19235 -7.48192 1.97303 2.78805 -7.10008 2.0377 3.11959 -7.05589 -0.0778017 -0.033924 -5.19916 -0.939905 -0.104038 -5.70102 -1.74699 -0.0785056 -6.2909 -1.76967 -0.077151 -6.30939 -2.14222 -0.0238663 -6.62555 -2.4422 0.0741066 -6.91648 -2.80681 0.180698 -7.25261 -3.0643 0.303017 -7.61803 -3.42206 0.528198 -7.87612 -3.73249 0.709999 -8.17459 -4.02857 0.981879 -8.38964 -4.2256 1.28824 -8.58271 -4.39795 1.64558 -8.80924 -4.57023 1.98994 -9.03061 -4.77273 2.34975 -9.29301 -4.95924 2.73278 -9.61568 -5.07288 2.96867 -9.93625 -5.26164 3.23177 -10.2507 -5.4429 3.46996 -10.5677 -1.76967 -0.077151 -6.30939 -1.79706 -0.356835 -7.2691 -1.88505 -0.544175 -8.24744 -1.88586 -0.545891 -8.25617 -2.14222 -0.0238663 -6.62555 -3.06592 0.0412066 -6.248 -3.52191 0.121809 -5.95155 -2.4422 0.0741066 -6.91648 -2.92306 0.920236 -6.68662 -2.96132 0.982352 -6.67228 -2.80681 0.180698 -7.25261 -3.24267 0.151258 -7.09736 -0.170325 -0.109553 -5.51018 0.291815 -0.604276 -6.24616 0.793871 -1.02498 -7.00177 0.866216 -1.07396 -7.09077 1.08827 -1.24743 -7.43318 1.32351 -1.3253 -7.75644 1.5073 -1.42356 -8.16453 1.69272 -1.49191 -8.53322 1.88898 -1.63362 -8.80896 2.11889 -1.78209 -9.10274 2.37947 -1.91757 -9.51447 2.62511 -2.11005 -9.88527 2.86488 -2.27256 -10.2446 2.96895 -2.48952 -10.6386 3.14454 -2.66364 -11.1222 3.32151 -2.79145 -11.5066 3.54067 -2.95951 -11.9444 3.65826 -3.10553 -12.384 3.73987 -3.22994 -12.8028 3.75023 -3.26452 -12.8984 0.866216 -1.07396 -7.09077 0.666559 -1.06145 -8.07056 0.490893 -1.03906 -8.99196 1.08827 -1.24743 -7.43318 0.646951 -1.50586 -8.29252 0.579787 -1.72009 -9.05785 1.32351 -1.3253 -7.75644 1.00261 -1.20226 -8.69553 0.946681 -1.17329 -8.88313 1.5073 -1.42356 -8.16453 2.2753 -1.55623 -8.05971 1.69272 -1.49191 -8.53322 1.80731 -1.79717 -8.57609 -0.251388 -0.186159 -5.7991 -0.621543 -1.1148 -5.82374 -1.06588 -2.00897 -5.76873 -1.33119 -2.38146 -5.81842 -1.59745 -2.77218 -5.86769 -1.80847 -3.13846 -5.94015 -2.0043 -3.46166 -6.01396 -2.30434 -3.78487 -6.0482 -2.63569 -4.08757 -6.07929 -2.96631 -4.39183 -6.11071 -3.30398 -4.77109 -6.18871 -3.60405 -5.09422 -6.24784 -3.95267 -5.47217 -6.28275 -4.29015 -5.7839 -6.36992 -4.63145 -6.15361 -6.44757 -4.86729 -6.49391 -6.64058 -5.20479 -6.87053 -6.79759 -5.48599 -7.25684 -6.94269 -1.33119 -2.38146 -5.81842 -0.915428 -3.12278 -5.29156 -0.697571 -3.45935 -5.04207 -1.59745 -2.77218 -5.86769 -2.52065 -2.39577 -5.94526 -2.8024 -2.29805 -5.98184 -1.80847 -3.13846 -5.94015 -1.31434 -3.72886 -5.74862 -2.0043 -3.46166 -6.01396 -2.37585 -3.49866 -6.12796 -0.346961 -0.280256 -6.08162 -1.21671 -0.50067 -6.52315 -2.11721 -0.928197 -6.44364 -2.32166 -1.00444 -6.44585 -2.77941 -1.07318 -6.45637 -3.31514 -1.13196 -6.41366 -3.76428 -1.18043 -6.26899 -4.26512 -1.23224 -6.18262 -4.72673 -1.36826 -6.05881 -5.17751 -1.47707 -5.92857 -5.66086 -1.66514 -5.77596 -6.06463 -1.8414 -5.61906 -6.40785 -2.22717 -5.59504 -6.73208 -2.55199 -5.39873 -7.08284 -2.81625 -5.20356 -7.44458 -2.98524 -5.05116 -7.83193 -3.21355 -4.97152 -8.22441 -3.53743 -4.90819 -8.52478 -3.78562 -4.86396 -2.32166 -1.00444 -6.44585 -2.62922 -1.77126 -7.00922 -2.89028 -2.50453 -7.63705 -3.07259 -2.88123 -7.90964 -2.77941 -1.07318 -6.45637 -3.43575 -0.434641 -6.05452 -4.29852 -0.028231 -5.75376 -4.46516 0.0478455 -5.69215 -3.31514 -1.13196 -6.41366 -3.95439 -1.28394 -5.65983 -4.53463 -1.35079 -5.06346 -3.76428 -1.18043 -6.26899 -4.05701 -2.03873 -5.84755 -4.23035 -2.43261 -5.80392 -4.26512 -1.23224 -6.18262 -4.42928 -1.15688 -5.39845 -4.72673 -1.36826 -6.05881 -4.8031 -1.60984 -6.081 -0.451848 -0.411607 -6.34957 -1.43775 -0.359526 -6.50857 -2.43019 -0.464846 -6.57155 -2.55974 -0.473413 -6.58697 -3.00373 -0.489171 -6.69586 -3.42889 -0.483225 -6.77226 -3.80129 -0.461911 -6.85042 -4.20329 -0.392281 -6.95582 -4.70664 -0.261667 -7.08284 -5.09806 -0.403917 -7.34136 -5.48567 -0.54809 -7.60501 -5.87622 -0.623638 -7.89775 -6.23787 -0.700912 -8.21407 -6.53591 -0.814151 -8.50492 -6.86192 -0.956364 -8.80068 -7.13971 -1.05013 -9.15862 -7.40155 -1.18779 -9.5152 -7.67126 -1.33055 -9.88792 -7.90411 -1.45384 -10.21 -7.97297 -1.49271 -10.3017 -2.55974 -0.473413 -6.58697 -2.87241 -1.04006 -7.3493 -2.91092 -1.34855 -7.86042 -3.00373 -0.489171 -6.69586 -3.71516 -0.259689 -6.03163 -3.73477 -0.25256 -6.01293 -3.42889 -0.483225 -6.77226 -3.61561 -0.76062 -7.1872 -3.80129 -0.461911 -6.85042 -3.84049 -0.361825 -6.90773 -0.56199 -0.525945 -6.64 -1.24991 0.125259 -6.96047 -1.82816 0.884956 -7.25795 -2.07958 1.21049 -7.35644 -2.38704 1.51906 -7.45926 -2.68288 1.80912 -7.56214 -3.01952 2.114 -7.68323 -3.36477 2.37232 -7.8411 -3.69481 2.59814 -8.02204 -4.00206 2.73238 -8.22315 -4.41651 2.9643 -8.50985 -4.74275 3.13959 -8.72453 -5.10465 3.30473 -9.01538 -5.42882 3.49819 -9.2501 -5.72287 3.8413 -9.48327 -6.0426 4.18134 -9.6612 -6.35264 4.46872 -9.82125 -6.69065 4.70113 -9.97529 -6.90495 4.84973 -10.0695 -2.07958 1.21049 -7.35644 -3.0041 0.870188 -7.18481 -3.49666 0.687074 -7.08943 -2.38704 1.51906 -7.45926 -3.21737 1.01116 -7.68859 -3.42529 0.883 -7.74638 -2.68288 1.80912 -7.56214 -2.50102 2.50462 -7.12442 -3.01952 2.114 -7.68323 -2.93901 2.34362 -7.76728 -0.62981 -0.590205 -6.92819 -0.200842 -1.25631 -7.53834 0.34469 -1.81303 -8.1648 0.52062 -1.95717 -8.26054 0.884555 -2.17369 -8.41312 1.24312 -2.38166 -8.55723 1.65048 -2.61348 -8.75706 1.97859 -2.87915 -8.98624 2.25688 -3.12456 -9.22341 2.55875 -3.3269 -9.42607 2.92386 -3.56191 -9.66424 3.35464 -3.79553 -9.98208 3.65068 -3.96844 -10.2142 3.8614 -4.21304 -10.6333 4.08188 -4.40885 -11.0937 4.28208 -4.5429 -11.4972 4.58466 -4.75565 -11.8834 4.83199 -4.93793 -12.2495 5.12533 -5.06126 -12.611 5.29172 -5.11118 -12.7953 0.52062 -1.95717 -8.26054 0.794603 -2.76908 -7.74505 1.34194 -3.35789 -7.1503 1.6593 -3.67318 -6.90461 0.884555 -2.17369 -8.41312 1.66225 -2.51444 -7.88484 2.58326 -2.75227 -7.57634 2.60668 -2.75955 -7.56936 1.24312 -2.38166 -8.55723 1.21349 -3.26022 -8.08051 1.14542 -3.97075 -7.92601 1.65048 -2.61348 -8.75706 1.99704 -3.42726 -8.29052 2.08242 -3.67725 -8.18573 1.97859 -2.87915 -8.98624 2.65801 -2.9147 -8.49357 2.25688 -3.12456 -9.22341 2.32103 -3.53696 -9.17013 -0.708164 -0.640011 -7.20751 -0.380827 0.0113451 -7.89204 -0.112284 0.394641 -8.77576 -0.0622104 0.479214 -8.97674 0.0581869 0.717869 -9.32394 0.158631 0.929659 -9.7251 0.170966 1.03342 -10.1643 0.113361 1.15114 -10.6243 0.0937743 1.29954 -11.0524 0.0760727 1.47241 -11.5392 0.152225 1.59087 -11.97 0.217657 1.68392 -12.4508 0.252148 1.72372 -12.8554 0.234231 1.77602 -13.2962 0.199432 1.80906 -13.7448 0.204032 1.9315 -14.178 0.328149 2.07625 -14.6601 0.430529 2.095 -15.0606 0.369076 2.10098 -15.5317 0.293157 2.0824 -15.8902 -0.0622104 0.479214 -8.97674 -0.718414 0.434665 -9.73 -1.01238 -0.0545786 -10.5511 -1.09266 -0.186179 -10.7666 0.0581869 0.717869 -9.32394 -0.654229 1.35269 -9.62304 -1.33759 1.86604 -9.92014 0.158631 0.929659 -9.7251 0.957821 1.51968 -9.61032 1.30025 1.73232 -9.59125 0.170966 1.03342 -10.1643 -0.406469 0.785953 -10.7022 0.113361 1.15114 -10.6243 -0.015642 1.60211 -10.6745 -0.693567 -0.765267 -7.50186 -1.33321 -1.51278 -7.68097 -2.1016 -2.09469 -7.94735 -2.34504 -2.24612 -8.01085 -2.82143 -2.56646 -8.09427 -3.23553 -2.84419 -8.17893 -3.66153 -2.9752 -8.36047 -4.05325 -3.08916 -8.52344 -4.48303 -3.13944 -8.76607 -4.83313 -3.08419 -9.06495 -5.09822 -3.23024 -9.44633 -5.2672 -3.32931 -9.86131 -5.46992 -3.47653 -10.1942 -5.72155 -3.63858 -10.5479 -5.90535 -3.72163 -10.8547 -6.1682 -3.83187 -11.293 -6.40947 -3.92723 -11.6793 -6.65123 -4.02461 -12.0785 -6.80575 -4.00277 -12.3925 -2.34504 -2.24612 -8.01085 -2.20486 -3.23613 -7.99573 -2.12061 -4.0428 -8.11905 -2.82143 -2.56646 -8.09427 -3.37863 -2.21749 -8.84776 -3.49237 -2.02763 -9.20687 -3.23553 -2.84419 -8.17893 -3.92896 -2.31507 -8.22736 -3.66153 -2.9752 -8.36047 -3.87654 -2.71863 -8.45101 -0.688751 -0.879906 -7.78593 -1.57988 -0.985521 -8.22721 -2.45624 -0.915658 -8.70378 -2.70372 -0.860514 -8.85508 -3.10047 -0.7632 -9.09708 -3.53597 -0.626617 -9.285 -3.9398 -0.497001 -9.46246 -4.3214 -0.409671 -9.73462 -4.77102 -0.369018 -10.0229 -5.2456 -0.423578 -10.1494 -5.72462 -0.452834 -10.1739 -6.21727 -0.462336 -10.1772 -6.61546 -0.696524 -10.144 -7.07045 -0.992279 -10.0855 -7.43171 -1.23797 -10.0461 -7.76525 -1.45267 -9.99074 -8.16856 -1.73153 -10.0414 -8.39199 -2.14884 -10.1557 -8.48395 -2.29633 -10.1937 -2.70372 -0.860514 -8.85508 -3.27665 -1.60594 -9.19581 -3.62836 -2.14068 -9.69088 -3.10047 -0.7632 -9.09708 -3.87623 -1.24655 -8.6914 -4.10025 -1.43447 -8.50091 -3.53597 -0.626617 -9.285 -4.07367 -1.31068 -9.7779 -4.09646 -1.33943 -9.79888 -3.9398 -0.497001 -9.46246 -4.37362 -0.612278 -9.37205 -0.739531 -1.00671 -8.04084 -1.15013 -0.438166 -8.75369 -1.87187 0.249018 -8.83652 -2.24778 0.590074 -8.84307 -2.6077 0.952169 -8.81818 -2.89335 1.27844 -8.77036 -3.18834 1.62142 -8.71467 -3.55446 1.95575 -8.66376 -3.87162 2.23999 -8.63536 -4.13956 2.65261 -8.73275 -4.40998 3.04273 -8.82815 -4.6652 3.49144 -8.95732 -4.89311 3.84994 -9.08108 -5.2341 4.18894 -9.15631 -5.56816 4.48178 -9.21416 -5.93377 4.79982 -9.28005 -6.25258 5.07847 -9.35532 -6.5328 5.37135 -9.48859 -6.54296 5.38299 -9.49393 -2.24778 0.590074 -8.84307 -3.04724 0.620231 -8.24311 -3.5221 0.605028 -7.89115 -2.6077 0.952169 -8.81818 -2.78714 1.4777 -9.64981 -2.87302 1.60124 -9.93542 -2.89335 1.27844 -8.77036 -2.95301 1.78739 -9.53656 -3.18834 1.62142 -8.71467 -3.3382 1.82409 -9.00006 -0.788277 -1.12252 -8.31969 -1.24783 -0.932555 -9.18729 -1.78067 -1.35349 -9.92138 -1.96291 -1.49772 -10.1747 -2.26274 -1.63374 -10.5732 -2.53964 -1.67749 -10.9309 -2.78203 -1.73344 -11.2482 -3.02744 -1.7542 -11.6762 -3.20992 -1.77161 -12.0778 -3.39902 -1.79781 -12.5044 -3.55503 -1.85263 -12.9816 -3.74934 -1.87592 -13.4459 -3.91582 -1.8787 -13.8251 -4.08882 -1.80529 -14.2399 -4.28372 -1.70725 -14.635 -4.48565 -1.62629 -15.105 -4.62746 -1.61635 -15.5942 -4.72577 -1.6465 -16.0375 -4.78427 -1.66452 -16.3005 -1.96291 -1.49772 -10.1747 -2.39004 -2.37065 -9.93894 -2.62179 -2.96597 -9.73363 -2.26274 -1.63374 -10.5732 -2.94879 -1.14375 -10.9739 -2.53964 -1.67749 -10.9309 -2.37598 -1.95015 -11.3659 -2.78203 -1.73344 -11.2482 -2.76177 -1.86194 -11.3283 -0.862406 -1.2318 -8.57639 -0.667887 -1.96539 -9.22755 -0.370831 -2.75162 -9.