<?xml version="1.0"?><VTKFile type="PolyData" version="0.1" byte_order="LittleEndian">
<PolyData>
<Piece NumberOfLines="60" NumberOfPoints="367">
<PointData Scalars=" PointData">
<DataArray type="Float32" Name="time" NumberOfComponents="1" format="ascii" >
0 0.15635 0.292313 0.422893 0.575036 0.726875 0.878216 1.02413 1.16999 1.31826 1.47571 1.60877 1.77074 1.92094 2.06512 2.20584 2.36039 2.52614 2.68203 2.84372 2.99056 3.16166 3.29225 3.46319 3.58296 3.75018 3.90101 4.07835 4.2469 4.39927 4.55616 4.73263 4.89158 5.03711 5.2158 5.38792 5.57241 5.73129 5.89583 6.07752 6.27071 6.45392 6.61847 6.78476 6.94476 7.12356 7.29565 7.45403 7.62998 7.80956 7.95763 8.11851 8.30539 8.47106 8.65317 8.83507 9.02892 9.18603 9.38104 9.52077 9.69535 9.90436 10.0851 10.25 10.4151 10.5846 10.7952 10.9736 11.1388 11.3085 11.5018 11.7254 11.9314 12.1207 12.336 12.4928 12.667 12.8485 13.0339 13.2183 13.4028 13.6071 13.806 14.0033 14.1971 14.4018 14.6067 14.7756 14.9711 15 5.95558 7.17458 8.56107 10.1685 12.0809 14.4417 15 6.10704 7.38812 8.84522 10.5345 12.5443 15 6.25254 7.55249 9.03103 10.7452 12.7846 15 6.42212 7.94311 9.67307 11.6787 14.0648 15 6.59142 7.95254 9.50066 11.2955 13.4308 15 6.76021 8.28337 10 12.0058 14.3915 15 6.92301 8.17293 9.59458 11.2428 13.2037 15 7.0858 8.40458 9.90455 11.6435 13.7125 15 7.25133 8.66616 10.2754 12.141 14.3606 15 7.42716 8.72516 10.2015 11.9131 13.9494 15 7.57581 9.08713 10.8061 12.799 15 7.75681 9.27726 11.0066 13.0115 15 7.92471 9.33788 10.9452 12.8087 15 8.08593 9.42934 10.9573 12.7288 14.8364 15 8.24333 9.65388 11.2582 13.1182 15 8.41627 9.90831 11.6053 13.5728 15 8.6018 9.95149 11.4866 13.2664 15 8.77636 10.3353 12.1083 14.164 15 8.95747 10.7567 12.8031 15 9.12201 10.5111 12.0911 13.9229 15 9.31379 10.6965 12.2692 14.0926 15 9.46023 10.9001 12.5377 14.4363 15 9.65197 10.8876 12.2929 13.9222 15 9.78636 11.0875 12.5674 14.2832 15 9.97404 11.4333 13.093 15 10.1434 11.4187 12.8692 14.5508 15 10.3426 11.6386 13.1126 14.8215 15 10.532 11.9515 13.566 15 10.7033 12.0923 13.6722 15 10.8797 12.4234 14.1791 15 11.0782 12.4256 13.9581 15 11.2571 12.671 14.2792 15 11.4209 12.7095 14.1752 15 11.6222 13.2511 15 11.8161 13.2219 14.8209 15 12.0241 13.268 14.6828 15 12.2032 13.7731 15 12.3888 13.9295 15 12.5938 14.0066 15 12.812 14.181 15 13.0189 14.7946 15 13.2048 14.9014 15 13.3928 14.811 15 13.5738 15 13.7761 15 13.9708 15 14.1502 15 14.3495 15 14.553 15 14.7209 15 14.9033 15 7 7.20699 7.41221 7.56669 7.79832 8.08459 8.28657 8.49779 8.72424 8.97535 9.17825 9.36744 9.56731 9.77959 9.94276 10.1329 10.3211 10.5091 10.7652 10.9745 11.181 11.3768 11.6037 11.8562 12.0761 12.3058 12.558 12.7662 12.9518 13.1353 13.3204 13.5182 13.7493 13.964 14.175 14.4292 14.6374 14.8464 15 13.6025 14.8157 15 13.8269 15 13.9959 15 14.2494 15 14.5627 15 14.7838 15 14 14.1491 14.3168 14.4535 14.6403 14.7971 14.9535 15 
</DataArray>

</PointData>
<CellData Scalars=" CellData">
<DataArray type="Float32" Name="radius" NumberOfComponents="1" format="ascii" >
0.138047 0.0465364 0.0469442 0.0467592 0.0415628 0.0553089 0.0454944 0.0455445 0.053007 0.0499801 0.0499485 0.0541913 0.0486872 0.0519842 0.0516231 0.0458002 0.0412245 0.0479646 0.0457859 0.0503062 0.0472453 0.0444833 0.0510881 0.041263 0.0525339 0.0532511 0.0454796 0.0440234 0.0404045 0.0571158 0.0509314 0.0507833 0.0413134 0.0493016 0.0465612 0.053168 0.039638 0.0489909 0.0501995 0.0553863 0.0506481 0.0480945 0.0501051 0.0573306 0.0536833 0.051641 0.0369402 0.0426987 0.0533212 0.0543374 0.0514611 0.0559224 0.126587 0.0530299 0.0546855 0.0453875 0.0522789 0.0415644 0.0484555 0.128995 
</DataArray>
<DataArray type="Float32" Name="subType" NumberOfComponents="1" format="ascii" >
1 2 2 2 2 2 2 2 2 2 2 2 2 2 2 2 2 2 2 2 2 2 2 2 2 2 2 2 2 2 2 2 2 2 2 2 2 2 2 2 2 2 2 2 2 2 2 2 2 2 2 2 4 2 2 2 2 2 2 4 
</DataArray>
<DataArray type="Float32" Name="creationTime" NumberOfComponents="1" format="ascii" >
0 5.95558 6.10704 6.25254 6.42212 6.59142 6.76021 6.92301 7.0858 7.25133 7.42716 7.57581 7.75681 7.92471 8.08593 8.24333 8.41627 8.6018 8.77636 8.95747 9.12201 9.31379 9.46023 9.65197 9.78636 9.97404 10.1434 10.3426 10.532 10.7033 10.8797 11.0782 11.2571 11.4209 11.6222 11.8161 12.0241 12.2032 12.3888 12.5938 12.812 13.0189 13.2048 13.3928 13.5738 13.7761 13.9708 14.1502 14.3495 14.553 14.7209 14.9033 7 13.6025 13.8269 13.9959 14.2494 14.5627 14.7838 14 
</DataArray>

</CellData>
<Points>
<DataArray type="Float32" Name="Coordinates" NumberOfComponents="3" format="ascii" >
0 0 -3 0.480419 -0.193686 -3.06488 0.905999 -0.304189 -3.17278 1.31267 -0.387288 -3.29864 1.78074 -0.527977 -3.42182 2.24281 -0.668765 -3.55705 2.69103 -0.81419 -3.71985 3.12104 -0.941759 -3.88894 3.54919 -1.06942 -4.05855 3.97773 -1.21214 -4.23372 4.44142 -1.35303 -4.40193 4.83346 -1.46799 -4.54342 5.31608 -1.55265 -4.73151 5.75973 -1.63492 -4.91015 6.18279 -1.72197 -5.08119 6.57849 -1.82685 -5.27335 6.97054 -1.97542 -5.5371 7.38956 -2.08802 -5.84081 7.79747 -2.2077 -6.09764 8.22899 -2.32374 -6.35079 8.5885 -2.48018 -6.60096 9.02462 -2.64031 -6.87685 9.35247 -2.75439 -7.0974 9.78092 -2.90425 -7.38394 10.0811 -3.00828 -7.58344 10.4873 -3.13128 -7.88786 10.8765 -3.24155 -8.12664 11.3371 -3.32826 -8.41551 11.763 -3.31502 -8.71651 12.1415 -3.3116 -8.99533 12.5223 -3.30699 -9.29197 12.9375 -3.29092 -9.6388 13.2905 -3.32463 -9.97119 13.6135 -3.35704 -10.2737 14.0079 -3.40112 -10.6447 14.3727 -3.43256 -11.016 14.7561 -3.36649 -11.4149 15.049 -3.28638 -11.7843 15.3361 -3.20034 -12.1768 15.6273 -3.06726 -12.6161 15.9614 -3.03262 -13.0839 16.2701 -2.99809 -13.5309 16.5283 -3.02287 -13.9434 16.7816 -3.0671 -14.3616 17.0269 -3.13569 -14.7577 17.2992 -3.19228 -15.2025 17.5601 -3.24717 -15.6294 17.7726 -3.29749 -16.0362 17.9628 -3.38751 -16.5023 18.1008 -3.45422 -16.9994 18.1833 -3.47526 -17.4185 18.2724 -3.47227 -17.8731 18.3978 -3.45885 -18.3945 18.5196 -3.44668 -18.8525 18.6538 -3.43374 -19.354 18.7622 -3.42642 -19.8595 18.9001 -3.45401 -20.3902 18.9889 -3.48421 -20.8237 19.1335 -3.53956 -21.3501 19.2167 -3.59642 -21.7289 19.3262 -3.65966 -22.2005 19.4578 -3.73306 -22.7632 19.5497 -3.82066 -23.2488 19.6414 -3.87205 -23.6931 19.7342 -3.90818 -24.1377 19.8298 -3.94443 -24.5924 19.9858 -3.92089 -25.1478 20.1264 -3.95563 -25.6131 20.2401 -3.9925 -26.0467 20.3515 -4.02653 -26.4924 20.4561 -4.05947 -27.0035 20.577 -4.09727 -27.5926 20.6806 -4.16433 -28.1316 20.7607 -4.20956 -28.6294 20.7823 -4.2592 -29.2002 20.7921 -4.31762 -29.6124 20.8054 -4.39002 -30.0675 20.8624 -4.4501 -30.5392 20.9138 -4.50705 -31.0205 21.0058 -4.6076 -31.4839 21.0951 -4.70956 -31.9461 21.2025 -4.83404 -32.4516 21.3119 -4.90094 -32.9508 21.3927 -4.94209 -33.4521 21.4798 -4.98704 -33.9411 21.5566 -5.03884 -34.4576 21.6404 -5.03521 -34.9741 21.7199 -5.02941 -35.3965 21.7983 -5.03702 -35.886 21.8104 -5.03715 -35.9581 0.480419 -0.193686 -3.06488 0.47049 -0.849368 -2.3099 0.426282 -1.52955 -1.57819 0.39066 -2.28858 -0.928113 0.338289 -3.06685 -0.302373 0.256809 -3.833 0.335096 0.243136 -3.98691 0.468677 0.905999 -0.304189 -3.17278 0.914121 0.487781 -3.78328 0.896314 1.28107 -4.39187 0.916708 2.16202 -4.86464 0.869011 3.03004 -5.35887 0.84177 3.87308 -5.87896 1.31267 -0.387288 -3.29864 1.97233 -0.183034 -2.57536 2.66297 0.0807098 -1.90198 3.36426 0.413163 -1.27136 4.08145 0.730391 -0.650875 4.63126 1.05123 -0.0260718 1.78074 -0.527977 -3.42182 1.26249 -0.924294 -4.17968 0.736689 -1.29934 -4.94314 0.149465 -1.73607 -5.62464 -0.595678 -1.94171 -6.25905 -0.854846 -1.98984 -6.47869 2.24281 -0.668765 -3.55705 2.2499 0.00201141 -4.29867 2.36342 0.74926 -4.95345 2.63664 1.38702 -5.67359 2.82859 2.00531 -6.43575 2.91023 2.38223 -6.92527 2.69103 -0.81419 -3.71985 3.25037 -0.408746 -2.99682 3.75343 0.0862891 -2.30046 4.25484 0.504757 -1.54319 4.73716 0.927386 -0.775882 4.8505 1.01778 -0.602184 3.12104 -0.941759 -3.88894 2.93797 -1.43453 -4.73962 2.79374 -1.99751 -5.55341 2.64861 -2.69559 -6.25457 2.51815 -3.38444 -6.96764 2.50037 -3.90759 -7.52414 3.54919 -1.06942 -4.05855 3.63626 -0.0733105 -4.04497 3.69493 0.924936 -4.03717 3.80678 1.91866 -4.0355 3.78908 2.91808 -4.00652 3.83297 3.44939 -3.99345 3.97773 -1.21214 -4.23372 4.67139 -0.521222 -4.43736 5.48727 0.0253662 -4.62599 6.32051 0.56154 -4.76097 7.18421 1.04909 -4.88873 7.40761 1.16421 -4.92985 4.44142 -1.35303 -4.40193 4.63315 -0.716393 -3.65498 4.97758 -0.0894047 -2.95623 5.3212 0.535026 -2.25479 5.63344 1.14911 -1.52994 5.74481 1.42943 -1.20073 4.83346 -1.46799 -4.54342 5.19808 -0.566623 -4.30977 5.54495 0.351384 -4.11756 5.84279 1.29197 -3.9545 6.11953 2.16917 -3.78985 5.31608 -1.55265 -4.73151 5.51562 -2.19021 -3.98741 5.74252 -2.89769 -3.31808 5.84509 -3.48686 -2.51661 5.87985 -3.97461 -1.82567 5.75973 -1.63492 -4.91015 5.99957 -0.664111 -4.90645 6.21119 0.311281 -4.8446 6.45305 1.28052 -4.79908 6.66416 2.24118 -4.69114 6.18279 -1.72197 -5.08119 6.01106 -2.14621 -5.97031 5.80709 -2.53704 -6.86788 5.82377 -3.02713 -7.7394 5.84734 -3.45784 -8.64158 5.84909 -3.48605 -8.70563 6.57849 -1.82685 -5.27335 7.0916 -1.93337 -4.42166 7.57301 -2.09242 -3.55972 8.16728 -2.13444 -2.75655 8.67794 -2.17809 -2.06327 6.97054 -1.97542 -5.5371 6.43385 -2.29174 -6.31935 5.88891 -2.59488 -7.1011 5.33776 -2.89246 -7.88065 4.95623 -3.0327 -8.36467 7.38956 -2.08802 -5.84081 7.73091 -2.59842 -5.05152 8.03677 -2.97792 -4.17835 8.35773 -3.36512 -3.31403 8.625 -3.6886 -2.59501 7.79747 -2.2077 -6.09764 7.79471 -1.44897 -6.74903 7.7909 -0.693487 -7.40419 7.76498 0.0835745 -8.03308 7.77405 0.34928 -8.28074 8.22899 -2.32374 -6.35079 7.91426 -2.51899 -7.27968 7.62984 -2.72149 -8.21675 7.33563 -2.89096 -9.08395 8.5885 -2.48018 -6.60096 9.23182 -2.58694 -5.84285 9.92579 -2.69969 -5.13172 10.6364 -2.84714 -4.44379 11.0026 -2.88194 -4.0792 9.02462 -2.64031 -6.87685 8.90256 -3.61561 -6.69274 8.69355 -4.57186 -6.48805 8.5485 -5.54659 -6.31815 8.48888 -5.97737 -6.24234 9.35247 -2.75439 -7.0974 9.97513 -3.01774 -6.36055 10.5806 -3.29117 -5.61313 11.1946 -3.51877 -4.85732 11.3624 -3.56186 -4.65349 9.78092 -2.90425 -7.38394 10.5148 -3.04628 -6.71967 11.2381 -3.29374 -6.07498 12.0129 -3.50236 -5.47824 12.4461 -3.58466 -5.10256 10.0811 -3.00828 -7.58344 10.8926 -2.69869 -7.08795 11.719 -2.50582 -6.55886 12.5599 -2.29808 -6.05905 12.8745 -2.21728 -5.87588 10.4873 -3.13128 -7.88786 10.1315 -3.11642 -8.82232 9.75967 -3.09809 -9.75043 9.38502 -3.12052 -10.6685 10.8765 -3.24155 -8.12664 11.3067 -3.57096 -7.28619 11.7379 -3.88914 -6.4419 12.1604 -4.22422 -5.59974 12.2749 -4.30548 -5.40355 11.3371 -3.32826 -8.41551 12.0709 -2.69422 -8.17129 12.745 -2.10768 -7.7224 13.3826 -1.49517 -7.2552 13.444 -1.43807 -7.20938 11.763 -3.31502 -8.71651 11.5086 -4.20143 -9.10323 11.2714 -5.08595 -9.50498 11.121 -5.77049 -9.84765 12.1415 -3.3116 -8.99533 11.6968 -2.64651 -9.59528 11.3193 -1.98475 -10.243 11.0077 -1.49783 -10.7059 12.5223 -3.30699 -9.29197 11.9469 -3.96741 -9.77452 11.3206 -4.59132 -10.2418 11.0667 -4.85598 -10.4516 12.9375 -3.29092 -9.6388 13.6573 -3.52342 -8.98473 14.3153 -3.79384 -8.28187 14.7134 -3.94719 -7.85209 13.2905 -3.32463 -9.97119 13.4696 -2.35104 -9.82964 13.6779 -1.40341 -9.58752 13.7661 -1.02148 -9.48337 13.6135 -3.35704 -10.2737 13.5674 -4.31018 -9.97473 13.5868 -5.26003 -9.6626 13.5978 -5.75025 -9.54061 14.0079 -3.40112 -10.6447 13.6939 -2.67892 -11.261 13.4325 -1.93088 -11.7804 14.3727 -3.43256 -11.016 14.6953 -4.30629 -10.652 14.9585 -5.23921 -10.4062 14.9855 -5.33577 -10.3798 14.7561 -3.36649 -11.4149 14.5081 -2.40298 -11.314 14.2536 -1.4458 -11.176 14.1995 -1.24936 -11.1458 15.049 -3.28638 -11.7843 14.8543 -4.16923 -12.2117 14.7145 -4.78583 -12.5162 15.3361 -3.20034 -12.1768 14.7903 -3.79894 -12.7631 14.4695 -4.19616 -13.1272 15.6273 -3.06726 -12.6161 15.1417 -3.8252 -13.0517 14.7294 -4.22026 -13.3278 15.9614 -3.03262 -13.0839 15.8408 -3.96545 -13.4234 15.7747 -4.47147 -13.609 16.2701 -2.99809 -13.5309 17.0666 -2.65155 -13.0354 17.1534 -2.61746 -12.9807 16.5283 -3.02287 -13.9434 15.5844 -2.75028 -14.1296 15.5329 -2.73653 -14.141 16.7816 -3.0671 -14.3616 17.3243 -2.23202 -14.2718 17.3941 -2.12963 -14.2613 17.0269 -3.13569 -14.7577 17.8474 -3.32029 -14.3048 17.2992 -3.19228 -15.2025 16.9283 -3.81347 -15.4618 17.5601 -3.24717 -15.6294 17.1865 -2.96654 -16.1289 17.7726 -3.29749 -16.0362 17.649 -2.66466 -16.119 17.9628 -3.38751 -16.5023 17.8223 -2.95386 -16.5819 18.1008 -3.45422 -16.9994 18.0917 -3.7732 -16.99 18.1833 -3.47526 -17.4185 18.2825 -3.6155 -17.4344 18.2724 -3.47227 -17.8731 18.3033 -3.4131 -17.8729 0 0 -3 0.49678 -0.118281 -3.05335 0.981037 -0.262454 -3.10219 1.34895 -0.348231 -3.15263 1.89351 -0.499151 -3.22693 2.55904 -0.679828 -3.35731 3.02635 -0.815418 -3.4397 3.50414 -0.98485 -3.52813 3.98913 -1.20449 -3.66622 4.52971 -1.41065 -3.85276 4.94613 -1.58182 -4.04514 5.343 -1.69298 -4.23863 5.76131 -1.80261 -4.44618 6.20565 -1.91514 -4.66522 6.55369 -1.98448 -4.82563 6.96329 -2.06184 -5.00235 7.38289 -2.13135 -5.13954 7.81486 -2.18641 -5.23212 8.39915 -2.27413 -5.36117 8.87015 -2.34836 -5.48424 9.31404 -2.49685 -5.61023 9.72695 -2.65315 -5.73263 10.1976 -2.84205 -5.88422 10.7194 -3.05157 -6.05287 11.1743 -3.18593 -6.23921 11.6482 -3.32336 -6.43503 12.1652 -3.47182 -6.65351 12.5715 -3.63676 -6.84352 12.931 -3.79077 -7.00945 13.3034 -3.94296 -7.12646 13.6761 -4.09943 -7.24552 14.0746 -4.26283 -7.37322 14.5437 -4.4499 -7.51026 14.9734 -4.6276 -7.64673 15.3919 -4.80134 -7.78867 15.8911 -5.00423 -7.97512 16.2904 -5.16735 -8.15027 16.6829 -5.33985 -8.33273 16.9719 -5.46433 -8.4658 0.49678 -0.118281 -3.05335 0.777749 -0.45877 -2.15606 0.818866 -0.506697 -2.02932 0.981037 -0.262454 -3.10219 1.25303 -0.218335 -2.27199 1.34895 -0.348231 -3.15263 1.58084 0.277143 -3.32238 1.89351 -0.499151 -3.22693 1.9899 -0.82403 -2.83995 2.55904 -0.679828 -3.35731 2.73095 -0.684693 -3.07692 3.02635 -0.815418 -3.4397 3.02764 -0.958869 -3.35978 0 0 -3 0.293782 -0.32948 -3.08037 0.619658 -0.682246 -3.23082 0.886067 -0.956894 -3.37509 1.24849 -1.35613 -3.51832 1.54273 -1.6962 -3.64345 1.85984 -2.01505 -3.7588 1.95319 -2.10864 -3.79815 
</DataArray>
</Points>
<Lines>
<DataArray type="Int32" Name="connectivity" NumberOfComponents="1" format="ascii" >
0 1 2 3 4 5 6 7 8 9 10 11 12 13 14 15 16 17 18 19 20 21 22 23 24 25 26 27 28 29 30 31 32 33 34 35 36 37 38 39 40 41 42 43 44 45 46 47 48 49 50 51 52 53 54 55 56 57 58 59 60 61 62 63 64 65 66 67 68 69 70 71 72 73 74 75 76 77 78 79 80 81 82 83 84 85 86 87 88 89 90 91 92 93 94 95 96 97 98 99 100 101 102 103 104 105 106 107 108 109 110 111 112 113 114 115 116 117 118 119 120 121 122 123 124 125 126 127 128 129 130 131 132 133 134 135 136 137 138 139 140 141 142 143 144 145 146 147 148 149 150 151 152 153 154 155 156 157 158 159 160 161 162 163 164 165 166 167 168 169 170 171 172 173 174 175 176 177 178 179 180 181 182 183 184 185 186 187 188 189 190 191 192 193 194 195 196 197 198 199 200 201 202 203 204 205 206 207 208 209 210 211 212 213 214 215 216 217 218 219 220 221 222 223 224 225 226 227 228 229 230 231 232 233 234 235 236 237 238 239 240 241 242 243 244 245 246 247 248 249 250 251 252 253 254 255 256 257 258 259 260 261 262 263 264 265 266 267 268 269 270 271 272 273 274 275 276 277 278 279 280 281 282 283 284 285 286 287 288 289 290 291 292 293 294 295 296 297 298 299 300 301 302 303 304 305 306 307 308 309 310 311 312 313 314 315 316 317 318 319 320 321 322 323 324 325 326 327 328 329 330 331 332 333 334 335 336 337 338 339 340 341 342 343 344 345 346 347 348 349 350 351 352 353 354 355 356 357 358 359 360 361 362 363 364 365 366 
</DataArray>
<DataArray type="Int32" Name="offsets" NumberOfComponents="1" format="ascii" >
90 97 103 109 115 121 127 133 139 145 151 156 161 166 172 177 182 187 192 196 201 206 211 216 221 225 230 235 239 243 247 251 255 259 262 266 270 273 276 279 282 285 288 291 293 295 297 299 301 303 305 307 346 349 351 353 355 357 359 367 
</DataArray>

</Lines>
</Piece>
</PolyData>
</VTKFile>
