<?xml version="1.0"?><VTKFile type="PolyData" version="0.1" byte_order="LittleEndian">
<PolyData>
<Piece NumberOfLines="32" NumberOfPoints="424">
<PointData Scalars=" PointData">
<DataArray type="Float32" Name="time" NumberOfComponents="1" format="ascii" >
0 0.138139 0.438321 0.739754 0.784104 1.08698 1.38767 1.69309 1.97104 2.27894 2.58816 2.62144 2.93213 3.24416 3.28963 3.60321 3.91816 3.96803 4.28457 4.53318 4.85221 5.05195 5.37328 5.67306 5.99717 6.32273 6.33077 6.65785 6.95996 7.2899 7.53792 7.87051 8.20464 8.33309 8.66936 8.95779 9.29699 9.59236 9.93456 10.2207 10.5659 10.9127 10.9364 11.2851 11.6354 11.6438 11.9958 12.3496 12.4273 12.7832 13.0688 13.4279 13.7615 14.1241 14.3925 14.7583 15.076 15.4452 15.8163 15.9784 16.3523 16.7281 16.7291 17.1069 17.484 17.8658 18.1401 18.5254 18.8665 19.2556 19.6151 20.0083 20.4037 20.4786 20.8766 21 7.69963 8.38792 9.0833 9.78589 10.4959 11.2133 11.9385 12.6716 13.4126 14.1619 14.9196 15.6858 16.4609 17.2449 18.0381 18.8407 19.6529 20.475 21 8.41713 9.04993 9.68923 10.3352 10.9879 11.6475 12.3143 12.9882 13.6695 14.3584 15.055 15.7594 16.472 17.1927 17.922 18.6599 19.4066 20.1625 20.9276 21 9.08818 9.78047 10.4799 11.1866 11.9006 12.6223 13.3517 14.089 14.8344 15.588 16.3501 17.1208 17.9003 18.6889 19.4867 20.2939 21 9.73737 10.4376 11.1451 11.8599 12.5821 13.3121 14.0499 14.7956 15.5496 16.3118 17.0827 17.8622 18.6507 19.4483 20.2553 21 10.4619 11.3144 12.1757 13.0459 13.9252 14.8139 15.7121 16.62 17.5379 18.4659 19.4044 20.3534 21 11.207 11.8531 12.506 13.1656 13.8321 14.5057 15.1865 15.8747 16.5704 17.2738 17.9851 18.7045 19.4321 20.1681 20.9128 21 11.9642 12.6766 13.3964 14.1236 14.8585 15.6011 16.3517 17.1104 17.8775 18.653 19.4373 20.2304 21 12.5957 13.2406 13.8921 14.5504 15.2156 15.8879 16.5673 17.2542 17.9485 18.6505 19.3604 20.0784 20.8045 21 13.1759 13.7247 14.2792 14.8394 15.4055 15.9777 16.5559 17.1404 17.7313 18.3288 18.9329 19.5439 20.1619 20.787 21 13.8712 14.4662 15.0674 15.6747 16.2885 16.9087 17.5357 18.1694 18.81 19.4577 20.1127 20.7751 21 14.6083 15.3283 16.0557 16.7906 17.5333 18.2839 19.0425 19.8093 20.5845 21 15.3141 16.0389 16.7712 17.511 18.2587 19.0142 19.7779 20.5498 21 15.9631 16.7088 17.4621 18.2233 18.9924 19.7697 20.5554 21 16.8571 17.5368 18.2235 18.9173 19.6184 20.3269 21 17.5604 18.1255 18.6964 19.2732 19.8561 20.4452 21 18.2755 19.0104 19.7529 20.5031 21 18.9843 19.6332 20.2887 20.951 21 19.7928 20.3859 20.9852 21 20.5928 21 7 7.14626 7.47622 7.80757 7.8392 8.1721 8.50642 8.5331 8.86897 9.12579 9.46422 9.80412 9.86741 10.2091 10.5263 10.8709 11.217 11.2475 11.5953 11.8869 12.2375 12.5897 12.6 12.9538 13.3093 13.3916 13.749 14.1026 14.4633 14.7585 15.1222 15.4877 15.6385 16.0064 16.376 16.5068 16.8788 17.2526 17.3249 17.7008 18.0786 18.0857 18.4653 18.7689 19.1518 19.5367 19.6763 20.0637 20.4377 20.8289 21 14.8802 15.602 16.3313 17.0681 17.8127 18.5652 19.3257 20.0945 20.8717 21 15.6455 16.4807 17.3246 18.1772 19.0387 19.9094 20.7895 21 16.4126 17.0228 17.6393 18.2622 18.8916 19.5278 20.1707 20.8206 21 17.0683 17.7329 18.4043 19.0827 19.7682 20.4609 21 17.8897 18.663 19.4444 20.2338 21 18.6201 19.2466 19.8796 20.5192 21 19.4203 20.0564 20.699 21 20.1304 20.8887 21 20.9232 21 14 14.1805 14.4745 14.6865 14.9827 15.2688 15.5674 15.8238 16.1249 16.4133 16.7169 17.0218 17.0285 17.3348 17.5967 17.9055 18.2157 18.2677 18.5795 18.7635 19.0775 19.3004 19.6169 19.9347 19.9704 20.2899 20.6004 20.9228 21 20.5087 21 
</DataArray>

</PointData>
<CellData Scalars=" CellData">
<DataArray type="Float32" Name="radius" NumberOfComponents="1" format="ascii" >
0.115682 0.0550016 0.047712 0.0572864 0.0436387 0.0551136 0.0506498 0.0574949 0.0548052 0.0440759 0.0477735 0.0520734 0.0497933 0.0460383 0.050623 0.0390709 0.050476 0.0520804 0.0423709 0.041474 0.122106 0.0609391 0.0424436 0.0527546 0.0471086 0.0538221 0.0490484 0.0586937 0.0488467 0.0535983 0.113779 0.0602562 
</DataArray>
<DataArray type="Float32" Name="subType" NumberOfComponents="1" format="ascii" >
1 2 2 2 2 2 2 2 2 2 2 2 2 2 2 2 2 2 2 2 4 2 2 2 2 2 2 2 2 2 4 2 
</DataArray>
<DataArray type="Float32" Name="creationTime" NumberOfComponents="1" format="ascii" >
0 7.69963 8.41713 9.08818 9.73737 10.4619 11.207 11.9642 12.5957 13.1759 13.8712 14.6083 15.3141 15.9631 16.8571 17.5604 18.2755 18.9843 19.7928 20.5928 7 14.8802 15.6455 16.4126 17.0683 17.8897 18.6201 19.4203 20.1304 20.9232 14 20.5087 
</DataArray>

</CellData>
<Points>
<DataArray type="Float32" Name="Coordinates" NumberOfComponents="3" format="ascii" >
0 0 -3 0.281893 -0.298309 -3.2112 0.793396 -1.08166 -3.56436 1.31845 -1.85133 -3.92758 1.39673 -1.96341 -3.98102 1.74506 -2.71048 -4.54719 2.09512 -3.4473 -5.1057 2.52688 -4.17242 -5.64215 2.92798 -4.82643 -6.12475 3.36243 -5.52465 -6.69374 3.82855 -6.19642 -7.26946 3.87866 -6.26863 -7.33115 4.21611 -6.93376 -7.99729 4.44168 -7.53331 -8.76517 4.47493 -7.62117 -8.87611 4.4432 -8.23307 -9.66641 4.45301 -8.75273 -10.5207 4.4543 -8.83587 -10.655 4.49961 -9.34797 -11.5127 4.54617 -9.77911 -12.1639 4.66556 -10.3083 -13.004 4.74704 -10.5551 -13.5711 4.84709 -10.8802 -14.5115 4.97412 -11.1414 -15.3939 5.10426 -11.4052 -16.3496 5.16258 -11.5698 -17.3343 5.16386 -11.5739 -17.3585 5.15464 -11.6659 -18.3542 5.30476 -11.5968 -19.2589 5.48459 -11.5467 -20.2414 5.56656 -11.4842 -20.983 5.7406 -11.4169 -21.9654 5.88263 -11.3001 -22.9483 5.94669 -11.2683 -23.3248 6.07815 -11.1795 -24.3122 6.14366 -11.0723 -25.1569 6.1479 -10.9527 -26.1497 6.11349 -10.8745 -27.0124 6.12953 -10.7756 -28.0074 6.1237 -10.7223 -28.8382 6.06707 -10.5932 -29.8282 5.95431 -10.5069 -30.8181 5.94574 -10.5007 -30.8855 5.94154 -10.3462 -31.8735 5.92546 -10.1964 -32.8621 5.92506 -10.1929 -32.8857 5.87729 -10.1125 -33.8813 5.81164 -10.0537 -34.8774 5.80662 -10.0444 -35.0962 5.7938 -10.0011 -36.0952 5.86101 -9.9619 -36.8902 5.95841 -9.84408 -37.8785 6.05124 -9.73802 -38.7923 6.06163 -9.6669 -39.7897 6.06858 -9.69861 -40.5262 6.05221 -9.72643 -41.5257 6.04846 -9.69824 -42.3898 5.98958 -9.64104 -43.3864 5.91293 -9.60122 -44.3827 5.93793 -9.59564 -44.8172 5.97423 -9.56134 -45.8159 5.99818 -9.50705 -46.8142 5.99822 -9.50687 -46.817 6.00592 -9.33021 -47.8012 5.88002 -9.17781 -48.7745 5.70951 -9.08442 -49.7554 5.58014 -9.02051 -50.4561 5.43155 -8.95209 -51.4426 5.34866 -8.83012 -52.3112 5.1842 -8.74927 -53.2943 5.13415 -8.64824 -54.2065 5.07951 -8.54855 -55.2 5.07726 -8.54262 -56.2 5.06518 -8.5459 -56.3886 5.02931 -8.56591 -57.3877 5.01115 -8.57043 -57.6963 0.281893 -0.298309 -3.2112 0.945316 0.0316616 -2.53964 1.60413 0.342108 -1.85438 2.25258 0.635879 -1.15209 2.81082 0.864998 -0.354673 3.40739 0.99215 0.437758 4.00397 1.11764 1.23044 4.62884 1.19061 2.00774 5.25713 1.29483 2.77872 5.84544 1.38615 3.58217 6.42235 1.4525 4.39629 6.93628 1.47051 5.25393 7.48676 1.527 6.08686 8.03906 1.59479 6.91774 8.56544 1.69863 7.76163 9.062 1.90439 8.60489 9.49063 2.00379 9.50289 10.0067 2.25039 10.3231 10.3526 2.41269 10.8268 1.39673 -1.96341 -3.98102 0.805293 -2.50456 -3.38323 0.256606 -3.05626 -2.75508 -0.360996 -3.66257 -2.25412 -1.07889 -4.16135 -1.76848 -1.80648 -4.71266 -1.36023 -2.53279 -5.26268 -0.94797 -3.25723 -5.80975 -0.528564 -4.03432 -6.37628 -0.254395 -4.87605 -6.88559 -0.0752459 -5.60961 -7.56515 -0.0657807 -6.35916 -8.22708 -0.0619058 -7.14186 -8.84943 -0.0699127 -8.00247 -9.35605 -0.0180516 -8.8612 -9.86595 0.0326954 -9.73799 -10.3301 0.158363 -10.615 -10.7944 0.28216 -11.48 -11.2914 0.2138 -12.3645 -11.7567 0.249532 -12.4476 -11.8004 0.253583 2.09512 -3.4473 -5.1057 1.43914 -3.43752 -5.86041 0.866135 -3.43824 -6.67996 0.385917 -3.26795 -7.54042 0.0185667 -3.04855 -8.44426 -0.304764 -2.86184 -9.37194 -0.563371 -2.62249 -10.3078 -0.831744 -2.22955 -11.1873 -1.06618 -1.84836 -12.0816 -1.37431 -1.43814 -12.94 -1.69438 -1.0092 -13.7847 -1.91819 -0.744796 -14.7228 -2.15418 -0.471245 -15.6552 -2.38352 -0.198551 -16.5896 -2.61585 0.0369533 -17.5333 -2.92641 0.13107 -18.4792 -3.17936 0.191886 -19.3041 2.92798 -4.82643 -6.12475 3.72658 -4.22482 -6.10786 4.50595 -3.59966 -6.06588 5.30138 -3.00991 -5.92627 6.12436 -2.46727 -5.75821 6.96449 -1.9385 -5.6374 7.87203 -1.58445 -5.41156 8.77867 -1.23738 -5.17165 9.62201 -0.749901 -4.9455 10.4841 -0.281305 -4.7527 11.3446 0.215818 -4.64138 12.2483 0.612117 -4.47912 13.1561 1.00584 -4.33431 14.0469 1.43418 -4.18272 14.9474 1.84514 -4.0405 15.7878 2.19501 -3.97717 3.87866 -6.26863 -7.33115 4.54228 -5.73275 -7.85311 5.21064 -5.24734 -8.41675 5.73187 -4.68031 -9.05455 6.19283 -4.02014 -9.64758 6.58034 -3.3117 -10.2375 6.88505 -2.52347 -10.7721 7.23058 -1.76366 -11.3228 7.49984 -0.894232 -11.7371 7.60992 -0.0340817 -12.2351 7.79359 0.850906 -12.6629 7.97605 1.7369 -13.0892 8.09196 2.35103 -13.3438 4.47493 -7.62117 -8.87611 4.01393 -8.50247 -8.77215 3.47266 -9.34203 -8.72569 2.9291 -10.1802 -8.68018 2.29129 -10.9502 -8.69549 1.64212 -11.7094 -8.64904 0.900298 -12.3681 -8.52332 0.120866 -12.9515 -8.2948 -0.691814 -13.4814 -8.0524 -1.56178 -13.9572 -7.9232 -2.48174 -14.3467 -7.87902 -3.40182 -14.7361 -7.8354 -4.29927 -15.1767 -7.85571 -5.22032 -15.529 -7.68969 -6.13289 -15.9373 -7.66823 -6.23875 -15.9848 -7.65936 4.4543 -8.83587 -10.655 3.45748 -8.91373 -10.672 2.49242 -9.14884 -10.7876 1.5443 -9.34028 -11.0415 0.583664 -9.48667 -11.2776 -0.394934 -9.69242 -11.2742 -1.3715 -9.88063 -11.3786 -2.34693 -10.0726 -11.4867 -3.31541 -10.2893 -11.6096 -4.28205 -10.5143 -11.732 -5.25543 -10.6899 -11.8792 -6.20361 -10.9786 -12.0119 -7.101 -11.2804 -12.1685 4.54617 -9.77911 -12.1639 5.47179 -9.45349 -12.3568 6.39976 -9.12979 -12.5414 7.33674 -8.82701 -12.7157 8.24726 -8.41859 -12.7802 9.1576 -8.00862 -12.8368 10.0926 -7.66018 -12.9027 11.035 -7.36169 -13.0537 11.9917 -7.10559 -13.1922 12.9529 -6.87304 -13.3405 13.9323 -6.6761 -13.3841 14.9119 -6.47496 -13.39 15.8925 -6.29497 -13.3126 16.1581 -6.26649 -13.3047 4.74704 -10.5551 -13.5711 5.43914 -11.175 -13.2014 6.15701 -11.7778 -12.8531 6.7691 -12.4551 -12.4449 7.40167 -13.0689 -11.9726 8.08466 -13.5472 -11.4205 8.78169 -14.1279 -10.9999 9.40452 -14.7571 -10.535 9.92941 -15.3821 -9.95715 10.4496 -15.9539 -9.32282 10.9705 -16.5157 -8.68015 11.4913 -17.0997 -8.05744 12.074 -17.7065 -7.5168 12.6209 -18.3506 -6.98198 12.804 -18.5694 -6.80068 4.97412 -11.1414 -15.3939 5.96254 -11.2134 -15.5275 6.89799 -11.5495 -15.6367 7.84514 -11.8603 -15.7165 8.79447 -12.1651 -15.793 9.77883 -12.333 -15.8463 10.7419 -12.5526 -16.0019 11.7149 -12.7826 -16.0209 12.6725 -13.0702 -16.0389 13.5972 -13.4507 -16.0243 14.5613 -13.7125 -15.9807 15.5364 -13.9297 -16.0252 15.8701 -13.9734 -16.0414 5.16386 -11.5739 -17.3585 5.34751 -12.4597 -16.9324 5.43923 -13.3835 -16.5606 5.53618 -14.2856 -16.14 5.61573 -15.194 -15.7297 5.67776 -16.1107 -15.335 5.78043 -16.9755 -14.8434 5.91425 -17.8231 -14.3299 6.04417 -18.6524 -13.7865 6.1057 -19.1017 -13.5093 5.30476 -11.5968 -19.2589 6.30065 -11.5658 -19.1739 7.24287 -11.4352 -18.8654 8.18911 -11.3091 -18.5675 9.09451 -11.1432 -18.1767 9.95199 -10.9193 -17.7135 10.764 -10.597 -17.2269 11.5241 -10.288 -16.6553 11.955 -10.0783 -16.3317 5.56656 -11.4842 -20.983 6.23206 -10.7627 -20.7921 6.94094 -10.0953 -20.5638 7.65985 -9.44707 -20.3129 8.36162 -8.7401 -20.225 9.03133 -7.9977 -20.207 9.79696 -7.36392 -20.0968 10.2196 -7.00006 -20.0336 5.94669 -11.2683 -23.3248 5.897 -12.1637 -23.7673 5.93139 -13.0573 -24.215 5.95535 -13.9654 -24.633 5.97153 -14.8701 -25.0587 6.09466 -15.7932 -25.423 6.14903 -16.7021 -25.6575 6.14366 -11.0723 -25.1569 5.56501 -11.8823 -25.0618 4.98421 -12.6903 -24.9624 4.42432 -13.5079 -24.8284 3.86877 -14.3322 -24.7188 3.23143 -15.0838 -24.5488 2.67765 -15.796 -24.3141 6.11349 -10.8745 -27.0124 7.11322 -10.8561 -27.0268 8.10466 -10.9744 -26.9715 9.09872 -11.0005 -27.0771 9.75055 -11.026 -27.1518 6.1237 -10.7223 -28.8382 5.74308 -11.6352 -28.9855 5.37963 -12.5571 -29.1196 4.98354 -13.469 -29.2271 4.95375 -13.5359 -29.234 5.94574 -10.5007 -30.8855 5.36266 -9.68832 -30.8818 4.76922 -8.88373 -30.8603 4.75465 -8.86397 -30.8598 5.92506 -10.1929 -32.8857 5.66083 -9.62527 -32.8033 0 0 -3 0.245461 0.306753 -3.20821 0.792972 0.9516 -3.7415 1.30486 1.5818 -4.3253 1.35402 1.6418 -4.38058 1.84018 2.26113 -4.99708 2.38668 2.80612 -5.63295 2.42978 2.84761 -5.6855 2.99722 3.30545 -6.3699 3.40303 3.55447 -6.96453 3.94545 3.88133 -7.73845 4.44369 4.19257 -8.54769 4.53678 4.2504 -8.69761 4.98819 4.58805 -9.52358 5.31031 4.88787 -10.3368 5.57514 5.14116 -11.2673 5.83596 5.41198 -12.1939 5.85976 5.43473 -12.2755 6.2422 5.76093 -13.14 6.55848 6.02046 -13.868 6.82185 6.26103 -14.8023 6.94685 6.49423 -15.7666 6.95093 6.50125 -15.7946 7.06255 6.84466 -16.7271 7.15859 7.14943 -17.6747 7.18962 7.21277 -17.8946 7.32315 7.4837 -18.8479 7.45489 7.75187 -19.7861 7.54868 7.91223 -20.7687 7.62114 8.04135 -21.57 7.67078 8.17529 -22.5597 7.68828 8.29639 -23.5522 7.6997 8.34481 -23.9606 7.78189 8.38517 -24.9564 7.85812 8.40961 -25.9532 7.88828 8.42641 -26.304 7.87437 8.53484 -27.298 7.8443 8.63669 -28.2924 7.83931 8.66349 -28.4834 7.80279 8.78349 -29.4755 7.76352 8.90603 -30.4672 7.76291 8.90815 -30.4859 7.6867 9.01323 -31.4774 7.65543 9.10412 -32.2678 7.60263 9.20531 -33.2613 7.55023 9.30628 -34.2548 7.52074 9.34138 -34.6135 7.44541 9.44769 -35.605 7.33957 9.46993 -36.5595 7.18321 9.52963 -37.5454 7.14454 9.5137 -37.979 0.245461 0.306753 -3.20821 1.12199 0.17432 -2.74543 2.02459 0.0393635 -2.33665 2.93448 -0.0560456 -1.93292 3.84249 -0.160014 -1.52709 4.78629 -0.260833 -1.21232 5.75475 -0.42966 -1.02906 6.71558 -0.615412 -0.823379 7.67952 -0.778407 -0.613021 7.83764 -0.804767 -0.578391 1.35402 1.6418 -4.38058 1.88897 2.15493 -3.70936 2.37023 2.73503 -3.0522 2.81335 3.34976 -2.3997 3.22465 3.92644 -1.69381 3.57472 4.54781 -0.992849 4.00926 5.18596 -0.357294 4.10632 5.34473 -0.209483 2.42978 2.84761 -5.6855 1.61699 3.0513 -6.23129 0.827329 3.33287 -6.7764 0.0498955 3.54751 -7.36761 -0.724784 3.84211 -7.92714 -1.60833 4.10336 -8.31586 -2.4895 4.29426 -8.7484 -3.39764 4.51567 -9.10373 -3.63949 4.56203 -9.2242 3.40303 3.55447 -6.96453 3.27735 2.77051 -7.57249 3.14061 1.97868 -8.16773 2.99155 1.12455 -8.66596 2.70415 0.286424 -9.12958 2.55052 -0.611316 -9.54245 2.43208 -1.30517 -9.85671 4.53678 4.2504 -8.69761 5.41965 4.02825 -8.28387 6.28354 3.88683 -7.80046 7.15147 3.65604 -7.36065 7.95505 3.57834 -6.83995 5.31031 4.88787 -10.3368 4.94484 5.80764 -10.1938 4.50579 6.69252 -10.0382 4.08584 7.58847 -9.89355 3.77243 8.25966 -9.81404 5.85976 5.43473 -12.2755 5.03026 5.97976 -12.3975 4.20155 6.51241 -12.5693 3.82483 6.77776 -12.6314 6.55848 6.02046 -13.868 6.05529 5.27263 -14.3011 5.97469 5.16794 -14.363 6.95093 6.50125 -15.7946 6.92922 6.36442 -15.8452 0 0 -3 0.342618 0.411766 -3.30387 0.857912 1.10256 -3.8111 1.19734 1.57837 -4.22902 1.68905 2.19086 -4.84795 2.16402 2.76404 -5.45711 2.613 3.38354 -6.10103 2.99319 3.92173 -6.64599 3.47157 4.56261 -7.24635 3.90705 5.19343 -7.81441 4.3065 5.87594 -8.42647 4.67522 6.58003 -9.03335 4.68325 6.59522 -9.04655 5.0583 7.2833 -9.66775 5.33385 7.85626 -10.2347 5.63806 8.53049 -10.9077 5.91402 9.19658 -11.6006 5.95939 9.30381 -11.7204 6.2388 9.92904 -12.4491 6.42544 10.2521 -12.9038 6.71173 10.8111 -13.682 6.94308 11.2019 -14.224 7.29763 11.72 -15.0024 7.69691 12.2268 -15.7664 7.74332 12.2808 -15.8527 8.11888 12.7315 -16.6625 8.39794 13.1317 -17.498 8.72855 13.5327 -18.3524 8.8137 13.6292 -18.5534 0.342618 0.411766 -3.30387 0.0836809 0.47686 -3.93548 
</DataArray>
</Points>
<Lines>
<DataArray type="Int32" Name="connectivity" NumberOfComponents="1" format="ascii" >
0 1 2 3 4 5 6 7 8 9 10 11 12 13 14 15 16 17 18 19 20 21 22 23 24 25 26 27 28 29 30 31 32 33 34 35 36 37 38 39 40 41 42 43 44 45 46 47 48 49 50 51 52 53 54 55 56 57 58 59 60 61 62 63 64 65 66 67 68 69 70 71 72 73 74 75 76 77 78 79 80 81 82 83 84 85 86 87 88 89 90 91 92 93 94 95 96 97 98 99 100 101 102 103 104 105 106 107 108 109 110 111 112 113 114 115 116 117 118 119 120 121 122 123 124 125 126 127 128 129 130 131 132 133 134 135 136 137 138 139 140 141 142 143 144 145 146 147 148 149 150 151 152 153 154 155 156 157 158 159 160 161 162 163 164 165 166 167 168 169 170 171 172 173 174 175 176 177 178 179 180 181 182 183 184 185 186 187 188 189 190 191 192 193 194 195 196 197 198 199 200 201 202 203 204 205 206 207 208 209 210 211 212 213 214 215 216 217 218 219 220 221 222 223 224 225 226 227 228 229 230 231 232 233 234 235 236 237 238 239 240 241 242 243 244 245 246 247 248 249 250 251 252 253 254 255 256 257 258 259 260 261 262 263 264 265 266 267 268 269 270 271 272 273 274 275 276 277 278 279 280 281 282 283 284 285 286 287 288 289 290 291 292 293 294 295 296 297 298 299 300 301 302 303 304 305 306 307 308 309 310 311 312 313 314 315 316 317 318 319 320 321 322 323 324 325 326 327 328 329 330 331 332 333 334 335 336 337 338 339 340 341 342 343 344 345 346 347 348 349 350 351 352 353 354 355 356 357 358 359 360 361 362 363 364 365 366 367 368 369 370 371 372 373 374 375 376 377 378 379 380 381 382 383 384 385 386 387 388 389 390 391 392 393 394 395 396 397 398 399 400 401 402 403 404 405 406 407 408 409 410 411 412 413 414 415 416 417 418 419 420 421 422 423 
</DataArray>
<DataArray type="Int32" Name="offsets" NumberOfComponents="1" format="ascii" >
76 95 115 132 148 161 177 190 204 219 232 242 251 259 266 273 278 283 287 289 340 350 358 367 374 379 384 388 391 393 422 424 
</DataArray>

</Lines>
</Piece>
</PolyData>
</VTKFile>
