<?xml version="1.0"?><VTKFile type="PolyData" version="0.1" byte_order="LittleEndian">
<PolyData>
<Piece NumberOfLines="5" NumberOfPoints="43">
<PointData Scalars=" PointData">
<DataArray type="Float32" Name="time" NumberOfComponents="1" format="ascii" >
0 0.242236 0.48535 0.72935 0.925803 1.17142 1.41793 1.66536 1.9137 2.16297 2.41317 2.66431 2.91639 3.08802 3.3417 3.59635 3.85197 4.10857 4.36616 4.62474 4.83459 5.09499 5.3564 5.61884 5.88232 6 2.44254 2.98509 3.53132 4.08127 4.635 5.19257 5.57602 6 5.57602 6 4.6551 5.16855 5.68535 6 0 0.742376 3 
</DataArray>

</PointData>
<CellData Scalars=" CellData">
<DataArray type="Float32" Name="radius" NumberOfComponents="1" format="ascii" >
0.0526976 0.03 0.02 0.03 0.02 
</DataArray>
<DataArray type="Float32" Name="subType" NumberOfComponents="1" format="ascii" >
1 2 3 2 4 
</DataArray>
<DataArray type="Float32" Name="creationTime" NumberOfComponents="1" format="ascii" >
0 2.44254 5.57602 4.6551 0 
</DataArray>

</CellData>
<Points>
<DataArray type="Float32" Name="Coordinates" NumberOfComponents="3" format="ascii" >
0 0 -3 -0.00388555 -0.0136054 -3.9999 -0.00608832 -0.0140654 -4.9999 -0.0072413 -0.0155737 -5.9999 0.00479342 -0.00805093 -6.80226 -0.000782637 0.00296774 -7.80218 0.0075512 0.057705 -8.80065 0.0778339 0.0499919 -9.79815 0.144993 0.103129 -10.7945 0.181053 0.195591 -11.7895 0.189303 0.126519 -12.7871 0.24007 0.0731166 -13.7844 0.257275 0.0327963 -14.7834 0.252851 0.0229413 -15.462 0.244866 -0.0155699 -16.4612 0.241489 -0.0183045 -17.4612 0.261699 -0.0430761 -18.4607 0.282148 -0.0531457 -19.4605 0.301823 -0.0644228 -20.4602 0.313389 -0.0484856 -21.46 0.322681 -0.0353161 -22.2685 0.298279 -0.0133146 -23.268 0.258886 -0.0143482 -24.2672 0.22249 -0.0371137 -25.2663 0.18432 -0.0225299 -26.2655 0.160197 -0.00446853 -26.7098 0.00479342 -0.00805093 -6.80226 -0.162422 -0.985703 -6.92967 -0.242915 -1.97458 -7.05477 -0.319982 -2.96622 -7.15823 -0.389349 -3.9582 -7.26389 -0.412212 -4.95244 -7.36862 -0.414475 -5.63289 -7.43537 -0.327129 -6.37427 -7.52773 -0.414475 -5.63289 -7.43537 0.0561354 -5.6796 -7.74561 0.252851 0.0229413 -15.462 1.05578 0.532148 -15.7719 1.86586 1.0805 -15.9795 2.36394 1.40257 -16.1018 0 0 -3 0.0643827 -0.926964 -3.36958 0.0404192 -1.64686 -3.67995 
</DataArray>
</Points>
<Lines>
<DataArray type="Int32" Name="connectivity" NumberOfComponents="1" format="ascii" >
0 1 2 3 4 5 6 7 8 9 10 11 12 13 14 15 16 17 18 19 20 21 22 23 24 25 26 27 28 29 30 31 32 33 34 35 36 37 38 39 40 41 42 
</DataArray>
<DataArray type="Int32" Name="offsets" NumberOfComponents="1" format="ascii" >
26 34 36 40 43 
</DataArray>

</Lines>
</Piece>
</PolyData>
</VTKFile>
