<?xml version="1.0"?><VTKFile type="PolyData" version="0.1" byte_order="LittleEndian">
<PolyData>
<Piece NumberOfLines="136" NumberOfPoints="511">
<PointData Scalars=" PointData">
<DataArray type="Float32" Name="time" NumberOfComponents="1" format="ascii" >
0 0.1003 0.196063 0.273575 0.372654 0.401479 0.505263 0.542925 0.686923 0.738379 0.796418 0.843214 1.0084 1.12318 1.20938 1.3531 1.38837 1.45644 1.56589 1.58346 1.64464 1.76899 1.91465 2.03327 2.13326 2.13818 2.19669 2.37525 2.50881 2.54312 2.54312 2.66778 2.8024 2.86146 2.94764 3.07515 3.25655 3.30128 3.47426 3.67067 3.67068 3.8588 4.10312 4.28946 4.30317 4.42475 4.68352 4.7749 4.93901 4.96734 4.99644 5.06397 5.4416 5.53178 5.80695 5.93203 6.06648 6.06648 6.22339 6.46898 6.77936 7.16437 7.49976 8.00723 8.33408 8.78481 9.1072 9.44176 9.45045 9.87225 10 0.832154 1.3888 2.58554 2.9667 4.26334 5.6485 5.72071 7.10878 7.10879 8.54447 8.77096 10 9.66436 10 0.940209 9.3004 10 1.02783 8.22325 10 1.14004 1.14012 3 10 9.50685 9.50693 10 9.50685 10 9.50693 10 9.50696 9.98351 9.9836 10 1.17274 6.571 10 1.29062 6.16343 10 1.33346 3.76775 3.76784 6 6.58029 10 1.49761 2.68844 2.93205 4.2102 5.56359 5.63116 6.04902 7.51873 7.77997 9.36861 9.57455 10 2.68844 10 2.93205 3.34639 6 10 2.93205 9.54489 10 8.22713 10 3.34639 8.84039 10 8.84039 10 6 8.95358 10 6 10 8.95358 10 5.63116 5.86656 10 6.04902 7.07189 10 6.04902 9.96002 10 9.96002 10 7.07189 10 7.77997 10 9.57455 10 1.55641 10 1.6228 7.96164 10 7.96164 9.9245 9.92459 10 9.9245 10 9.92459 10 1.6764 2.93728 4.26471 4.70554 4.70556 6.13246 7.5295 8.56294 9.18131 10 6.05243 8.70315 10 6.05245 10 9.04133 9.04142 10 1.8661 6.1868 6.18693 7.0255 10 1.99836 7.43067 10 7.43067 10 2.09794 10 2.09794 10 2.26446 4.84285 4.84294 6 8.96873 10 2.30543 9.94136 10 2.38459 10 2.38459 6.62651 10 2.51217 7.81648 10 2.5327 10 2.60422 10 2.74996 4.06142 5.41563 6.81548 8.26415 9.76517 10 2.92134 4.78148 10 8.65485 10 3.06145 10 3.17994 3.18002 6 10 3.17994 10 3.18002 7.79558 10 9.81287 9.81296 10 9.81287 10 9.81296 10 9.81296 10 6 10 3.18578 4.35576 5.58963 6.89479 8.27996 8.322 9.80049 10 3.25529 4.43812 5.68402 6.3072 7.65992 9.09579 9.92942 10 8.58398 10 3.46822 6.57853 10 6.57853 10 6.57853 6.80465 10 3.62828 4.82677 4.82692 6 7.81305 10 4.82677 10 4.82692 10 4.82692 10 6 10 3.66951 5.8305 10 9.19064 10 3.66951 3.66959 6 9.36751 10 5.92161 10 5.92161 6.17668 10 5.92171 7.76762 7.76772 10 8.99493 10 3.81971 7.38605 10 3.98263 6.83913 7.43436 7.43453 10 6.83913 10 7.43436 10 7.43436 10 7.43453 10 4.05435 5.18814 6.37031 7.65389 8.28441 8.8039 9.30002 9.30004 10 4.15926 8.42208 10 8.42208 10 4.3151 5.38359 6.55521 6.72685 7.58779 7.5878 8.80674 9.96257 10 6.72685 10 7.58779 10 7.5878 9.48523 9.48531 10 8.80674 10 9.96257 10 9.96257 10 4.53806 10 4.59326 6.76444 10 6.76444 7.42688 9.55853 10 7.42688 7.46145 10 7.46145 10 9.55853 10 4.8077 9.18023 10 5.05297 5.35779 5.35781 6.73272 6.80761 6.80762 7.16138 7.86509 9.71655 9.7355 10 6.23041 10 6.23042 10 7.83774 8.35697 10 7.83776 10 8.23433 10 9.02893 10 5.05298 10 5.28979 10 5.60023 5.65077 6.71459 7.73255 7.89786 7.89788 8.57417 9.2671 9.35774 10 5.83931 6.94685 8.10155 9.30762 9.74183 9.74184 10 5.85699 9.69524 10 6.01422 10 6.01422 8.39319 10 6.35203 6.35212 10 6.35203 10 6.35212 8.83861 10 6.47238 7.58004 8.77115 10 6.68997 7.47925 7.47933 10 6.72774 7.8476 9.03969 10 6.76658 8.08644 9.47149 10 6.85697 8.05834 8.31123 8.78086 10 7.36888 10 7.49284 8.69104 9.9368 10 7.87544 9.01333 9.24204 10 8.05164 10 8.24271 8.51618 10 8.24272 8.81134 10 8.468 10 8.82583 10 9.2879 10 9.87802 10 
</DataArray>

</PointData>
<CellData Scalars=" CellData">
<DataArray type="Float32" Name="radius" NumberOfComponents="1" format="ascii" >
0.0794409 0.0773934 0.0536847 0.0657903 0.0846409 0.089709 0.062097 0.0752525 0.0713869 0.0712374 0.0541721 0.069698 0.0559872 0.06222 0.0467458 0.0748723 0.0865398 0.068507 0.0672283 0.0584679 0.0540246 0.0650481 0.0694496 0.057855 0.0963734 0.0742691 0.0669981 0.0699761 0.0742858 0.0840028 0.0633671 0.0534514 0.0669134 0.0669297 0.0656557 0.0755459 0.0772027 0.0524614 0.0839885 0.0570087 0.0740016 0.0931026 0.0708838 0.0571266 0.0730971 0.046053 0.0855501 0.0704394 0.0629245 0.069285 0.0584678 0.0817395 0.071446 0.0685999 0.0771353 0.0790794 0.083394 0.0574451 0.0647406 0.0447062 0.063046 0.065756 0.0612185 0.0729215 0.0663814 0.0944312 0.0726035 0.0667624 0.085646 0.0660986 0.0996445 0.0880648 0.068621 0.0596587 0.0692535 0.0744078 0.0714025 0.0696804 0.0810803 0.0815369 0.0947366 0.0579923 0.0580068 0.0738 0.0618046 0.0686095 0.0791163 0.0726824 0.0747245 0.0856389 0.0684944 0.0638069 0.0674329 0.0747438 0.0753189 0.0678431 0.0773431 0.071496 0.0810368 0.075431 0.0693975 0.0543535 0.0673654 0.0579648 0.0726599 0.0766642 0.0701259 0.0612009 0.0613893 0.0592032 0.0609317 0.054023 0.0633042 0.0626334 0.0748227 0.0707546 0.0608447 0.0612352 0.0757736 0.0856729 0.0796536 0.0716208 0.0701162 0.0696846 0.0698214 0.0690284 0.0787399 0.070572 0.0818049 0.0709924 0.0698915 0.0604525 0.0624884 0.0617649 0.063705 0.0837997 
</DataArray>
<DataArray type="Float32" Name="subType" NumberOfComponents="1" format="ascii" >
1 2 3 3 3 3 3 3 3 3 3 3 3 2 3 3 3 3 3 3 3 3 3 3 3 3 3 3 3 3 3 3 3 3 3 2 3 3 3 3 3 3 3 3 3 3 3 3 3 3 3 2 3 3 3 3 3 3 3 3 3 3 3 2 2 3 3 3 3 3 3 3 3 3 3 3 3 3 3 3 3 3 3 3 3 3 3 2 3 3 2 3 3 3 3 3 3 3 3 3 3 3 3 3 2 3 3 3 3 3 3 3 3 2 2 3 3 3 3 3 3 2 3 2 2 2 3 2 2 3 3 2 3 2 3 3 
</DataArray>
<DataArray type="Float32" Name="creationTime" NumberOfComponents="1" format="ascii" >
0 0.832154 9.66436 0.940209 1.02783 1.14004 9.50685 9.50685 9.50693 9.50696 1.17274 1.29062 1.33346 1.49761 2.68844 2.93205 2.93205 8.22713 3.34639 8.84039 6 6 8.95358 5.63116 6.04902 6.04902 9.96002 7.07189 7.77997 9.57455 1.55641 1.6228 7.96164 9.9245 9.92459 1.6764 6.05243 6.05245 9.04133 1.8661 1.99836 7.43067 2.09794 2.09794 2.26446 2.30543 2.38459 2.38459 2.51217 2.5327 2.60422 2.74996 2.92134 8.65485 3.06145 3.17994 3.17994 3.18002 9.81287 9.81287 9.81296 9.81296 6 3.18578 3.25529 8.58398 3.46822 6.57853 6.57853 3.62828 4.82677 4.82692 4.82692 6 3.66951 9.19064 3.66951 5.92161 5.92161 5.92171 8.99493 3.81971 3.98263 6.83913 7.43436 7.43436 7.43453 4.05435 4.15926 8.42208 4.3151 6.72685 7.58779 7.5878 8.80674 9.96257 9.96257 4.53806 4.59326 6.76444 7.42688 7.46145 9.55853 4.8077 5.05297 6.23041 6.23042 7.83774 7.83776 8.23433 9.02893 5.05298 5.28979 5.60023 5.83931 5.85699 6.01422 6.01422 6.35203 6.35203 6.35212 6.47238 6.68997 6.72774 6.76658 6.85697 7.36888 7.49284 7.87544 8.05164 8.24271 8.24272 8.468 8.82583 9.2879 9.87802 
</DataArray>

</CellData>
<Points>
<DataArray type="Float32" Name="Coordinates" NumberOfComponents="3" format="ascii" >
0 0 -3 -0.0648898 -0.00299223 -3.49096 -0.0961204 0.0173601 -3.95478 -0.209986 0.0961907 -4.29931 -0.225995 0.176694 -4.75989 -0.244008 0.213974 -4.88806 -0.374019 0.407021 -5.30753 -0.383787 0.44059 -5.47603 -0.443838 0.513913 -6.1173 -0.447329 0.52689 -6.34487 -0.467726 0.524536 -6.59887 -0.472491 0.487979 -6.79923 -0.424551 0.323489 -7.48489 -0.421569 0.175553 -7.94146 -0.419208 0.0641716 -8.27807 -0.392221 -0.121454 -8.82709 -0.386731 -0.171008 -8.95825 -0.372877 -0.246726 -9.21547 -0.32365 -0.355569 -9.62384 -0.316341 -0.37302 -9.68876 -0.310549 -0.41181 -9.91932 -0.454617 -0.401076 -10.3646 -0.532799 -0.476967 -10.8899 -0.505566 -0.588623 -11.3017 -0.50979 -0.642066 -11.6516 -0.510026 -0.644307 -11.6687 -0.542007 -0.662249 -11.8697 -0.638664 -0.722523 -12.4705 -0.658546 -0.701031 -12.9155 -0.661398 -0.690896 -13.0279 -0.661398 -0.690895 -13.0279 -0.668338 -0.705617 -13.4328 -0.74656 -0.721218 -13.8537 -0.778626 -0.736007 -14.0352 -0.827407 -0.768057 -14.2955 -0.862009 -0.779124 -14.6816 -0.841824 -0.878717 -15.2099 -0.828449 -0.888947 -15.339 -0.819266 -0.879713 -15.8335 -0.778844 -0.878785 -16.377 -0.778843 -0.878785 -16.377 -0.741581 -0.883983 -16.8814 -0.732259 -0.92329 -17.5142 -0.757669 -0.929166 -17.9803 -0.758291 -0.929967 -18.0141 -0.785979 -0.954104 -18.3082 -0.88017 -1.01234 -18.9095 -0.862365 -1.07515 -19.1089 -0.828219 -1.20086 -19.4542 -0.823532 -1.22301 -19.5127 -0.818906 -1.24544 -19.5726 -0.830713 -1.28053 -19.7154 -0.727707 -1.39375 -20.4966 -0.701853 -1.45185 -20.6681 -0.58344 -1.65915 -21.1544 -0.522572 -1.71889 -21.377 -0.470499 -1.74773 -21.6206 -0.470497 -1.74773 -21.6206 -0.414538 -1.74974 -21.9008 -0.352858 -1.7272 -22.3286 -0.122172 -1.70282 -22.797 0.0166783 -1.65962 -23.3921 0.164093 -1.559 -23.8624 0.222126 -1.34619 -24.5379 0.176627 -1.29457 -24.9597 0.008667 -1.21874 -25.4812 -0.13088 -1.20621 -25.8251 -0.212635 -1.14959 -26.1765 -0.214706 -1.14816 -26.1853 -0.281616 -1.09228 -26.6086 -0.316275 -1.10152 -26.7285 -0.0648898 -0.00299223 -3.49096 -0.208125 -0.419789 -3.69488 -0.591672 -1.23046 -4.13725 -0.711032 -1.47822 -4.27217 -1.07147 -2.22897 -4.82575 -1.44756 -3.03186 -5.28828 -1.46308 -3.07356 -5.3117 -1.72978 -3.8914 -5.67192 -1.72978 -3.89141 -5.67193 -1.97279 -4.70277 -5.97567 -2.00558 -4.82605 -6.02346 -2.13342 -5.47845 -6.28195 -0.208125 -0.419789 -3.69488 -0.233176 -0.422083 -3.7281 -0.0961204 0.0173601 -3.95478 -0.377613 -0.278726 -4.86752 -0.397951 -0.294684 -4.93692 -0.209986 0.0961907 -4.29931 -0.251139 0.409873 -5.01219 -0.301285 0.488285 -5.15066 -0.225995 0.176694 -4.75989 -0.226002 0.176696 -4.7599 -0.296701 0.195046 -4.98523 0.231705 0.189801 -5.48311 -0.225995 0.176694 -4.75989 -0.226 0.176703 -4.75989 -0.255354 0.224848 -4.73754 -0.225995 0.176694 -4.75989 -0.267307 0.170602 -4.80618 -0.226 0.176703 -4.75989 -0.199015 0.125754 -4.75493 -0.226002 0.176696 -4.7599 -0.239637 0.123832 -4.76257 -0.23964 0.123822 -4.76257 -0.240064 0.122079 -4.76267 -0.244008 0.213974 -4.88806 -0.279783 -0.379374 -5.07874 -0.197622 -0.70278 -5.19664 -0.374019 0.407021 -5.30753 -0.637638 0.682838 -5.80839 -0.905785 0.607762 -6.1392 -0.383787 0.44059 -5.47603 -0.618162 0.400208 -5.65595 -0.61817 0.400206 -5.65596 -0.791515 0.393901 -5.81018 -0.830493 0.399728 -5.84799 -1.04189 0.390794 -6.03193 -0.443838 0.513913 -6.1173 -0.955773 1.3652 -6.1343 -1.0616 1.53056 -6.1503 -1.59692 2.35341 -6.34098 -2.20334 3.14515 -6.41455 -2.22844 3.18636 -6.4108 -2.37608 3.44142 -6.38135 -2.94001 4.26702 -6.36201 -3.03229 4.41091 -6.37071 -3.57549 5.24623 -6.45539 -3.64031 5.35265 -6.45218 -3.76961 5.56888 -6.41984 -0.955773 1.3652 -6.1343 -0.565191 0.782647 -5.81819 -1.0616 1.53056 -6.1503 -1.0691 1.55261 -6.10821 -1.09917 1.70118 -5.89179 -1.21013 1.84101 -5.66993 -1.0616 1.53056 -6.1503 -0.587776 1.45695 -5.56476 -0.558861 1.45186 -5.53149 -1.0616 1.53056 -6.1503 -1.10552 1.36454 -6.07664 -1.0691 1.55261 -6.10821 -1.59948 1.54803 -6.32323 -1.69488 1.54869 -6.34836 -1.59948 1.54803 -6.32323 -1.58299 1.60487 -6.42981 -1.09917 1.70118 -5.89179 -1.22167 1.80478 -5.61392 -1.26135 1.83379 -5.53291 -1.09917 1.70118 -5.89179 -1.13451 2.10658 -5.86662 -1.22167 1.80478 -5.61392 -1.17341 1.88166 -5.54626 -2.22844 3.18636 -6.4108 -2.22758 3.19252 -6.38391 -2.21218 3.26369 -5.9415 -2.37608 3.44142 -6.38135 -2.46256 3.38359 -6.32262 -2.61946 3.23079 -6.10295 -2.37608 3.44142 -6.38135 -2.27136 3.74397 -6.73252 -2.2705 3.7467 -6.73585 -2.27136 3.74397 -6.73252 -2.27487 3.74704 -6.73295 -2.46256 3.38359 -6.32262 -2.30543 3.66095 -6.28485 -3.03229 4.41091 -6.37071 -3.23141 4.53682 -6.37237 -3.64031 5.35265 -6.45218 -3.60429 5.31958 -6.474 -0.447329 0.52689 -6.34487 0.145469 0.38666 -6.88447 -0.467726 0.524536 -6.59887 -0.543656 -0.0694121 -6.66879 -0.553586 -0.235052 -6.66207 -0.543656 -0.0694121 -6.66879 -0.694164 -0.0832028 -6.49867 -0.69417 -0.0832034 -6.49866 -0.699647 -0.0837157 -6.49247 -0.694164 -0.0832028 -6.49867 -0.691884 -0.0765216 -6.49246 -0.69417 -0.0832034 -6.49866 -0.697633 -0.0791729 -6.503 -0.472491 0.487979 -6.79923 -1.22467 1.1111 -7.01358 -1.75859 1.93084 -7.22081 -1.92611 2.19491 -7.2914 -1.92611 2.19492 -7.2914 -2.56362 2.96367 -7.24017 -3.17928 3.58275 -7.54752 -3.50415 4.1377 -7.65743 -3.68771 4.46145 -7.72203 -4.0128 4.82204 -7.74456 -1.92611 2.19491 -7.2914 -1.91032 2.50685 -7.21655 -1.93245 2.6433 -7.16635 -1.92611 2.19492 -7.2914 -1.44747 2.23931 -7.24574 -3.17928 3.58275 -7.54752 -3.17928 3.58274 -7.54752 -3.23882 3.53502 -7.46819 -0.424551 0.323489 -7.48489 -0.291187 -0.0325759 -7.39414 -0.291183 -0.032585 -7.39414 -0.278598 -0.0941073 -7.38196 -0.246655 -0.289018 -7.34593 -0.421569 0.175553 -7.94146 -0.749223 -0.251145 -7.90718 -0.827344 -0.404652 -7.90676 -0.749223 -0.251145 -7.90718 -0.754472 -0.266888 -7.64526 -0.419208 0.0641716 -8.27807 -1.05303 0.257879 -8.65649 -0.419208 0.0641716 -8.27807 0.203831 -0.0309649 -7.74533 -0.392221 -0.121454 -8.82709 -0.339365 0.14842 -8.95972 -0.339363 0.148429 -8.95972 -0.314817 0.257191 -9.01775 -0.314883 0.529498 -9.12739 -0.312545 0.615935 -9.16153 -0.386731 -0.171008 -8.95825 -0.987416 0.317919 -8.69372 -0.991929 0.320908 -8.69169 -0.372877 -0.246726 -9.21547 -0.56189 -0.189571 -9.88414 -0.372877 -0.246726 -9.21547 -0.733819 -0.2357 -8.85162 -1.0067 -0.236045 -8.62561 -0.32365 -0.355569 -9.62384 0.0362311 -0.846885 -9.81243 0.167563 -1.0364 -9.86742 -0.316341 -0.37302 -9.68876 0.254554 -0.407503 -10.1357 -0.310549 -0.41181 -9.91932 -0.656305 -0.987794 -9.46443 -0.454617 -0.401076 -10.3646 0.0326691 -0.149655 -11.2009 0.465236 0.0691651 -12.0756 1.07239 0.577376 -12.6864 1.78114 1.0288 -13.2285 2.505 1.48433 -13.7467 2.60778 1.56033 -13.8311 -0.532799 -0.476967 -10.8899 -0.574283 -0.306226 -10.7855 -0.686881 -0.174575 -10.3075 -0.574283 -0.306226 -10.7855 -0.739089 -0.355857 -10.7471 -0.505566 -0.588623 -11.3017 -0.868553 0.0672613 -11.2463 -0.50979 -0.642066 -11.6516 -0.509793 -0.642073 -11.6516 -0.625647 -0.906387 -11.7114 -0.740048 -1.19526 -11.7615 -0.50979 -0.642066 -11.6516 -0.391724 -0.331917 -12.2302 -0.509793 -0.642073 -11.6516 -0.909621 -0.564386 -11.298 -1.05995 -0.549215 -11.1335 -0.909621 -0.564386 -11.298 -0.909625 -0.564381 -11.298 -0.919191 -0.553822 -11.2825 -0.909621 -0.564386 -11.298 -0.922001 -0.580954 -11.2821 -0.909625 -0.564381 -11.298 -0.913773 -0.58481 -11.2947 -0.909625 -0.564381 -11.298 -0.913854 -0.54923 -11.2826 -0.625647 -0.906387 -11.7114 -0.821431 -0.562011 -11.8886 -0.510026 -0.644307 -11.6687 0.213476 -1.26948 -11.9615 0.982158 -1.87427 -12.1697 1.78291 -2.37985 -12.4909 2.55006 -2.86971 -12.9051 2.57272 -2.88388 -12.9173 3.33624 -3.36747 -13.3453 3.44124 -3.41506 -13.4054 -0.542007 -0.662249 -11.8697 -1.11462 -0.972866 -12.6284 -1.47853 -1.2005 -13.5316 -1.68478 -1.38177 -13.9259 -2.19558 -1.75879 -14.6986 -2.86028 -2.19664 -15.3039 -3.22313 -2.42953 -15.6502 -3.25328 -2.44942 -15.6786 -1.68478 -1.38177 -13.9259 -1.55552 -1.2831 -13.8735 -0.638664 -0.722523 -12.4705 -0.811218 -0.47288 -12.3731 -1.00437 -0.273585 -12.324 -0.811218 -0.47288 -12.3731 -0.702017 -0.73698 -12.2233 -0.811218 -0.47288 -12.3731 -0.825828 -0.450347 -12.3843 -0.928112 -0.106344 -12.3311 -0.658546 -0.701031 -12.9155 -0.719087 -0.65276 -12.8522 -0.719093 -0.652755 -12.8522 -0.758938 -0.614989 -12.8207 -0.794345 -0.579109 -12.794 -0.812075 -0.559744 -12.7735 -0.719087 -0.65276 -12.8522 -1.17377 -0.594094 -13.0441 -0.719093 -0.652755 -12.8522 -0.977088 -0.2495 -12.816 -0.719093 -0.652755 -12.8522 -1.18787 -0.852113 -13.1037 -0.758938 -0.614989 -12.8207 -0.432851 -0.553905 -12.6356 -0.661398 -0.690896 -13.0279 -0.77244 -0.907761 -13.0753 -1.13951 -1.0638 -13.1239 -0.77244 -0.907761 -13.0753 -0.839698 -0.838196 -13.0603 -0.661398 -0.690895 -13.0279 -0.661391 -0.690889 -13.0279 -0.569485 -0.517275 -12.8631 -0.462245 -0.333076 -12.69 -0.437344 -0.311964 -12.6644 -0.661398 -0.690895 -13.0279 -0.83785 -0.694615 -13.479 -0.661398 -0.690895 -13.0279 -0.686792 -0.683325 -13.02 -1.08717 -0.661175 -12.9915 -0.661391 -0.690889 -13.0279 -0.548779 -0.824926 -12.9427 -0.548773 -0.824933 -12.9427 -0.464494 -0.999079 -12.9001 -0.569485 -0.517275 -12.8631 -0.628706 -0.513889 -12.7539 -0.668338 -0.705617 -13.4328 -0.377255 -1.01737 -13.1978 -0.14901 -1.20719 -13.0522 -0.74656 -0.721218 -13.8537 -0.514536 -0.777509 -13.9092 -0.478986 -0.787323 -13.916 -0.478977 -0.787325 -13.916 -0.370252 -0.796932 -13.9744 -0.514536 -0.777509 -13.9092 -0.812686 -0.647901 -13.7628 -0.478986 -0.787323 -13.916 -0.693274 -0.993112 -13.8173 -0.478986 -0.787323 -13.916 -0.328453 -0.63567 -14.0171 -0.478977 -0.787325 -13.916 -0.585967 -0.611863 -14.128 -0.778626 -0.736007 -14.0352 -1.6334 -1.043 -14.4537 -2.56442 -1.0423 -14.7655 -3.40782 -1.42136 -15.1463 -3.80407 -1.60008 -15.3179 -4.12698 -1.76009 -15.4169 -4.42617 -1.90489 -15.5186 -4.42618 -1.9049 -15.5186 -4.80549 -2.16457 -15.6401 -0.827407 -0.768057 -14.2955 -0.486178 -0.986573 -14.1649 -0.389487 -1.05025 -14.0949 -0.486178 -0.986573 -14.1649 -0.546318 -0.982709 -14.3221 -0.862009 -0.779124 -14.6816 -1.82962 -1.01612 -14.7686 -2.75496 -1.39186 -14.8191 -2.88564 -1.43791 -14.8213 -3.51445 -1.65812 -14.8199 -3.51446 -1.65813 -14.8199 -4.30067 -2.02142 -14.8241 -4.99485 -2.29114 -14.8193 -5.0167 -2.29815 -14.8187 -2.88564 -1.43791 -14.8213 -2.84356 -1.08605 -14.8746 -3.51445 -1.65812 -14.8199 -3.28604 -1.5875 -14.9568 -3.51446 -1.65813 -14.8199 -3.42518 -1.58385 -15.0355 -3.42517 -1.58384 -15.0355 -3.40476 -1.55966 -15.0884 -4.30067 -2.02142 -14.8241 -4.40282 -1.94265 -14.8331 -4.99485 -2.29114 -14.8193 -4.99648 -2.28944 -14.8158 -4.99485 -2.29114 -14.8193 -4.99901 -2.28901 -14.8202 -0.841824 -0.878717 -15.2099 -1.22974 -0.73816 -15.6402 -0.828449 -0.888947 -15.339 -0.851395 -0.670778 -15.2279 -0.74868 -0.364284 -15.1921 -0.851395 -0.670778 -15.2279 -0.850179 -0.716299 -15.1738 -0.875558 -0.904947 -15.0945 -0.882234 -0.941246 -15.0821 -0.850179 -0.716299 -15.1738 -0.853239 -0.714606 -15.1722 -1.04153 -0.567669 -15.0645 -0.853239 -0.714606 -15.1722 -0.751092 -0.877176 -15.3072 -0.875558 -0.904947 -15.0945 -0.904442 -0.875784 -15.0637 -0.819266 -0.879713 -15.8335 -0.847493 -1.33141 -16.1096 -0.855132 -1.40737 -16.1559 -0.778844 -0.878785 -16.377 -0.546365 -0.81809 -16.3429 -0.546356 -0.818087 -16.3429 0.38309 -0.55482 -16.0844 0.429553 -0.542785 -16.0694 0.429563 -0.542783 -16.0694 0.649455 -0.498534 -16.0096 1.0676 -0.42691 -15.9088 1.90861 -0.0841378 -15.4902 1.91646 -0.0809366 -15.4865 2.02402 -0.0381483 -15.4346 -0.546365 -0.81809 -16.3429 -0.711132 -0.877716 -16.7332 -0.546356 -0.818087 -16.3429 -0.527517 -1.20302 -16.1642 0.429553 -0.542785 -16.0694 0.396236 -0.482749 -16.0582 0.290236 -0.303945 -16.0664 0.429563 -0.542783 -16.0694 0.422421 -0.699241 -15.9017 0.649455 -0.498534 -16.0096 0.746385 -0.364316 -16.1612 1.0676 -0.42691 -15.9088 1.14737 -0.385495 -15.8349 -0.778843 -0.878785 -16.377 -0.549721 -1.30579 -16.3197 -0.741581 -0.883983 -16.8814 -0.616673 -1.32328 -16.6557 -0.732259 -0.92329 -17.5142 -0.68934 -0.910775 -17.4933 0.185166 -0.620994 -17.1044 0.967386 -0.322091 -16.7997 1.07869 -0.272179 -16.7332 1.07869 -0.272176 -16.7332 1.51023 -0.0677959 -16.4556 1.95058 0.131755 -16.2151 2.0042 0.162465 -16.1849 2.41199 0.3339 -16.0113 -0.757669 -0.929166 -17.9803 -1.31206 -0.292054 -17.4448 -1.48032 0.437077 -16.7815 -1.73074 1.13651 -16.1121 -1.90542 1.35381 -15.9017 -1.90542 1.35382 -15.9017 -2.03748 1.45531 -15.7821 -0.758291 -0.929967 -18.0141 -0.332374 -1.00915 -18.1174 -0.302369 -1.01693 -18.1258 -0.785979 -0.954104 -18.3082 -0.445609 -1.09705 -18.5009 -0.785979 -0.954104 -18.3082 -0.685048 -0.999081 -18.0398 -0.628094 -1.00098 -17.8651 -0.88017 -1.01234 -18.9095 -0.880161 -1.01234 -18.9095 -0.564711 -0.986722 -18.7321 -0.88017 -1.01234 -18.9095 -0.69583 -0.778639 -18.6112 -0.880161 -1.01234 -18.9095 -0.828875 -1.233 -18.7874 -0.819616 -1.32264 -18.7166 -0.862365 -1.07515 -19.1089 -1.12644 -1.63727 -19.8927 -1.61126 -2.18491 -20.5746 -2.06944 -2.71136 -21.2276 -0.828219 -1.20086 -19.4542 -0.928094 -1.19813 -19.4548 -0.928104 -1.19813 -19.4548 -1.20527 -1.25171 -19.4938 -0.823532 -1.22301 -19.5127 -1.15784 -1.93665 -18.8971 -1.36762 -2.7693 -18.3846 -1.49627 -3.366 -17.9318 -0.818906 -1.24544 -19.5726 -1.39055 -2.05749 -19.4551 -1.90144 -2.91671 -19.428 -2.11468 -3.21459 -19.3858 -0.830713 -1.28053 -19.7154 -0.995333 -2.01662 -19.0589 -1.0427 -2.16872 -18.9355 -1.13294 -2.4456 -18.7135 -1.35334 -3.13801 -18.1757 -0.727707 -1.39375 -20.4966 -0.916985 -1.24088 -20.5312 -0.701853 -1.45185 -20.6681 0.118389 -1.9321 -20.9789 0.942531 -2.38463 -21.3194 0.983319 -2.40828 -21.3351 -0.58344 -1.65915 -21.1544 -1.4402 -1.49069 -21.6418 -1.60564 -1.44911 -21.7367 -2.12837 -1.3707 -22.0854 -0.522572 -1.71889 -21.377 -0.283341 -1.73245 -21.3564 -0.470499 -1.74773 -21.6206 -0.439518 -1.7358 -21.6168 -0.278598 -1.69069 -21.6592 -0.470497 -1.74773 -21.6206 -0.294515 -1.33252 -21.6009 0.231313 -0.612876 -21.5357 -0.414538 -1.74974 -21.9008 -0.454133 -1.87133 -21.751 -0.352858 -1.7272 -22.3286 -0.675925 -2.55257 -22.2786 -0.122172 -1.70282 -22.797 -0.071379 -1.63803 -22.7668 0.0166783 -1.65962 -23.3921 0.0177653 -1.65661 -23.3779 
</DataArray>
</Points>
<Lines>
<DataArray type="Int32" Name="connectivity" NumberOfComponents="1" format="ascii" >
0 1 2 3 4 5 6 7 8 9 10 11 12 13 14 15 16 17 18 19 20 21 22 23 24 25 26 27 28 29 30 31 32 33 34 35 36 37 38 39 40 41 42 43 44 45 46 47 48 49 50 51 52 53 54 55 56 57 58 59 60 61 62 63 64 65 66 67 68 69 70 71 72 73 74 75 76 77 78 79 80 81 82 83 84 85 86 87 88 89 90 91 92 93 94 95 96 97 98 99 100 101 102 103 104 105 106 107 108 109 110 111 112 113 114 115 116 117 118 119 120 121 122 123 124 125 126 127 128 129 130 131 132 133 134 135 136 137 138 139 140 141 142 143 144 145 146 147 148 149 150 151 152 153 154 155 156 157 158 159 160 161 162 163 164 165 166 167 168 169 170 171 172 173 174 175 176 177 178 179 180 181 182 183 184 185 186 187 188 189 190 191 192 193 194 195 196 197 198 199 200 201 202 203 204 205 206 207 208 209 210 211 212 213 214 215 216 217 218 219 220 221 222 223 224 225 226 227 228 229 230 231 232 233 234 235 236 237 238 239 240 241 242 243 244 245 246 247 248 249 250 251 252 253 254 255 256 257 258 259 260 261 262 263 264 265 266 267 268 269 270 271 272 273 274 275 276 277 278 279 280 281 282 283 284 285 286 287 288 289 290 291 292 293 294 295 296 297 298 299 300 301 302 303 304 305 306 307 308 309 310 311 312 313 314 315 316 317 318 319 320 321 322 323 324 325 326 327 328 329 330 331 332 333 334 335 336 337 338 339 340 341 342 343 344 345 346 347 348 349 350 351 352 353 354 355 356 357 358 359 360 361 362 363 364 365 366 367 368 369 370 371 372 373 374 375 376 377 378 379 380 381 382 383 384 385 386 387 388 389 390 391 392 393 394 395 396 397 398 399 400 401 402 403 404 405 406 407 408 409 410 411 412 413 414 415 416 417 418 419 420 421 422 423 424 425 426 427 428 429 430 431 432 433 434 435 436 437 438 439 440 441 442 443 444 445 446 447 448 449 450 451 452 453 454 455 456 457 458 459 460 461 462 463 464 465 466 467 468 469 470 471 472 473 474 475 476 477 478 479 480 481 482 483 484 485 486 487 488 489 490 491 492 493 494 495 496 497 498 499 500 501 502 503 504 505 506 507 508 509 510 
</DataArray>
<DataArray type="Int32" Name="offsets" NumberOfComponents="1" format="ascii" >
71 83 85 88 91 95 98 100 102 106 109 112 118 130 132 136 139 141 144 146 149 151 153 156 159 162 164 166 168 170 172 175 179 181 183 193 196 198 201 206 209 211 213 215 221 224 226 229 232 234 236 243 246 248 250 254 256 259 262 264 266 268 270 278 286 288 291 293 296 302 304 306 308 310 313 315 320 322 325 329 331 334 339 341 343 345 347 356 359 361 370 372 374 378 380 382 384 386 389 393 396 398 400 403 414 416 418 421 423 425 427 429 431 441 448 451 453 456 459 461 464 468 472 476 480 485 487 491 495 497 500 503 505 507 509 511 
</DataArray>

</Lines>
</Piece>
</PolyData>
</VTKFile>
