<?xml version="1.0"?><VTKFile type="PolyData" version="0.1" byte_order="LittleEndian">
<PolyData>
<Piece NumberOfLines="21" NumberOfPoints="146">
<PointData Scalars=" PointData">
<DataArray type="Float32" Name="time" NumberOfComponents="1" format="ascii" >
0 0.242236 0.48535 0.72935 0.925803 1.17142 1.41793 1.66536 1.9137 2.16297 2.41317 2.66431 2.91639 3.08802 3.3417 3.59635 3.85197 4.10857 4.36616 4.62474 4.83459 5.09499 5.3564 5.61884 5.88232 6.14683 6.41239 6.67901 6.86902 7.13747 7.40699 7.67761 7.94932 8.22214 8.49607 8.77113 9.04733 9.12125 9.3989 9.6777 9.95766 10 2.44254 2.98509 3.53132 4.08127 4.635 5.19257 5.57602 6.14016 6.70827 6.73394 7.30627 7.79553 8.37548 8.94828 9.53662 10 5.57602 10 6.73394 6.932 7.41208 7.93603 8.51266 9.15377 9.87562 10 6.932 7.65155 10 7.79553 7.99919 8.45759 8.93182 9.42301 9.93243 10 7.99919 8.75039 10 8.94828 9.24754 9.91532 10 9.24754 9.96472 10 4.6551 5.16855 5.68535 6.20556 6.72922 7.25638 7.32812 7.8593 8.39408 8.48231 9.02134 9.54567 10 7.32812 7.52176 7.94263 8.40248 8.9093 9.47377 10 7.52176 8.1921 10 8.48231 8.71412 9.2244 9.76465 10 8.71412 9.31845 10 9.54567 9.80043 10 9.80043 10 6.44357 6.91367 7.38697 7.8635 8.34331 8.82645 9.31297 9.34402 9.83417 10 9.34402 9.59868 10 9.59868 10 8.52823 9.03592 9.547 10 0 0.742376 3 
</DataArray>

</PointData>
<CellData Scalars=" CellData">
<DataArray type="Float32" Name="radius" NumberOfComponents="1" format="ascii" >
0.0526976 0.03 0.02 0.02 0.02 0.02 0.02 0.02 0.02 0.03 0.02 0.02 0.02 0.02 0.02 0.02 0.03 0.02 0.02 0.03 0.02 
</DataArray>
<DataArray type="Float32" Name="subType" NumberOfComponents="1" format="ascii" >
1 2 3 3 4 3 4 3 4 2 3 4 3 4 3 4 2 3 4 2 4 
</DataArray>
<DataArray type="Float32" Name="creationTime" NumberOfComponents="1" format="ascii" >
0 2.44254 5.57602 6.73394 6.932 7.79553 7.99919 8.94828 9.24754 4.6551 7.32812 7.52176 8.48231 8.71412 9.54567 9.80043 6.44357 9.34402 9.59868 8.52823 0 
</DataArray>

</CellData>
<Points>
<DataArray type="Float32" Name="Coordinates" NumberOfComponents="3" format="ascii" >
0 0 -3 -0.00388555 -0.0136054 -3.9999 -0.00608832 -0.0140654 -4.9999 -0.0072413 -0.0155737 -5.9999 0.00479342 -0.00805093 -6.80226 -0.000782637 0.00296774 -7.80218 0.0075512 0.057705 -8.80065 0.0778339 0.0499919 -9.79815 0.144993 0.103129 -10.7945 0.181053 0.195591 -11.7895 0.189303 0.126519 -12.7871 0.24007 0.0731166 -13.7844 0.257275 0.0327963 -14.7834 0.252851 0.0229413 -15.462 0.244866 -0.0155699 -16.4612 0.241489 -0.0183045 -17.4612 0.261699 -0.0430761 -18.4607 0.282148 -0.0531457 -19.4605 0.301823 -0.0644228 -20.4602 0.313389 -0.0484856 -21.46 0.322681 -0.0353161 -22.2685 0.298279 -0.0133146 -23.268 0.258886 -0.0143482 -24.2672 0.22249 -0.0371137 -25.2663 0.18432 -0.0225299 -26.2655 0.0615243 -0.074005 -27.2566 -0.0107065 -0.145371 -28.2514 -0.0471827 -0.176423 -29.2503 -0.0621024 -0.197148 -29.96 -0.0391885 -0.194356 -30.9598 -0.0210075 -0.188645 -31.9596 0.00841 -0.135657 -32.9578 0.0188225 -0.0837993 -33.9564 0.0379462 -0.0286028 -34.9546 0.0855934 -0.0197962 -35.9535 0.111348 -0.0219952 -36.9531 0.128087 0.00606801 -37.9526 0.139453 0.00576597 -38.2193 0.13298 0.0179329 -39.2192 0.173353 0.0155747 -40.2184 0.194378 0.0501884 -41.2176 0.198356 0.0570482 -41.3683 0.00479342 -0.00805093 -6.80226 -0.162422 -0.985703 -6.92967 -0.242915 -1.97458 -7.05477 -0.319982 -2.96622 -7.15823 -0.389349 -3.9582 -7.26389 -0.412212 -4.95244 -7.36862 -0.414475 -5.63289 -7.43537 -0.26091 -6.61725 -7.5217 -0.106255 -7.60033 -7.61979 -0.0991685 -7.64451 -7.62468 0.0113123 -8.63342 -7.72393 0.106504 -9.4745 -7.79263 0.243085 -10.4552 -7.93281 0.345289 -11.421 -8.0685 0.458699 -12.4052 -8.2041 0.558764 -13.1773 -8.28264 -0.414475 -5.63289 -7.43537 0.350714 -5.80362 -7.97079 -0.0991685 -7.64451 -7.62468 0.128879 -7.70745 -7.99277 0.688895 -7.79704 -8.81639 1.34057 -7.87058 -9.57132 2.02183 -8.12734 -10.2568 2.62038 -8.27926 -11.0434 3.21834 -8.42624 -11.8313 3.31162 -8.45005 -11.9591 0.128879 -7.70745 -7.99277 1.01186 -7.2615 -7.84622 1.64845 -6.96104 -7.75689 0.106504 -9.4745 -7.79263 0.0218251 -9.68875 -7.40015 -0.218639 -10.1708 -6.55767 -0.241323 -10.8724 -5.84546 -0.297008 -11.6319 -5.19734 -0.593668 -12.2505 -4.46975 -0.624993 -12.3242 -4.36749 0.0218251 -9.68875 -7.40015 0.0503538 -9.12055 -6.57775 0.0909859 -8.69971 -5.95808 0.345289 -11.421 -8.0685 -0.116073 -11.5554 -8.22592 -0.942157 -11.8808 -8.686 -1.03341 -11.8986 -8.75406 -0.116073 -11.5554 -8.22592 -0.53445 -10.7392 -8.62433 -0.549227 -10.7118 -8.63705 0.252851 0.0229413 -15.462 1.05578 0.532148 -15.7719 1.86586 1.0805 -15.9795 2.68729 1.59901 -16.2169 3.51889 2.08654 -16.483 4.3506 2.59299 -16.7105 4.46287 2.66154 -16.7432 5.26513 3.21413 -16.9691 6.07091 3.77523 -17.1585 6.20456 3.86581 -17.1892 7.01606 4.41766 -17.3813 7.79572 4.93742 -17.617 8.49224 5.36256 -17.7795 4.46287 2.66154 -16.7432 4.79621 2.3424 -16.5804 5.38192 1.64668 -16.1646 6.00014 0.955928 -15.7896 6.61222 0.274463 -15.3884 7.24788 -0.431653 -15.0764 7.77724 -1.02461 -14.8198 4.79621 2.3424 -16.5804 5.43255 2.61218 -15.8577 5.94023 2.76815 -15.3598 6.20456 3.86581 -17.1892 6.13965 4.01517 -17.6332 6.03325 4.30188 -18.5853 5.63286 4.71088 -19.4053 5.46914 4.94455 -19.7102 6.13965 4.01517 -17.6332 6.34293 3.15759 -18.1057 6.41457 2.66815 -18.4594 7.79572 4.93742 -17.617 7.68502 5.23471 -18.0364 7.62682 5.43649 -18.3583 7.68502 5.23471 -18.0364 7.66028 5.58859 -18.0183 0.322681 -0.0353161 -22.2685 -0.326141 0.569794 -22.7299 -0.947065 1.19864 -23.1979 -1.563 1.82774 -23.6721 -2.17921 2.45641 -24.1465 -2.77723 3.10715 -24.6144 -3.31953 3.84379 -25.0185 -3.354 3.8905 -25.0444 -3.94527 4.60261 -25.423 -4.14398 4.84519 -25.5456 -3.354 3.8905 -25.0444 -3.67132 4.1548 -24.8088 -4.14164 4.52791 -24.4805 -3.67132 4.1548 -24.8088 -4.27126 3.86632 -24.5858 -0.0621024 -0.197148 -29.96 0.515671 0.616852 -29.9002 1.10519 1.42197 -29.8349 1.62564 2.13033 -29.7788 0 0 -3 0.0643827 -0.926964 -3.36958 0.0404192 -1.64686 -3.67995 
</DataArray>
</Points>
<Lines>
<DataArray type="Int32" Name="connectivity" NumberOfComponents="1" format="ascii" >
0 1 2 3 4 5 6 7 8 9 10 11 12 13 14 15 16 17 18 19 20 21 22 23 24 25 26 27 28 29 30 31 32 33 34 35 36 37 38 39 40 41 42 43 44 45 46 47 48 49 50 51 52 53 54 55 56 57 58 59 60 61 62 63 64 65 66 67 68 69 70 71 72 73 74 75 76 77 78 79 80 81 82 83 84 85 86 87 88 89 90 91 92 93 94 95 96 97 98 99 100 101 102 103 104 105 106 107 108 109 110 111 112 113 114 115 116 117 118 119 120 121 122 123 124 125 126 127 128 129 130 131 132 133 134 135 136 137 138 139 140 141 142 143 144 145 
</DataArray>
<DataArray type="Int32" Name="offsets" NumberOfComponents="1" format="ascii" >
42 58 60 68 71 78 81 85 88 101 108 111 116 119 122 124 134 137 139 143 146 
</DataArray>

</Lines>
</Piece>
</PolyData>
</VTKFile>
