<?xml version="1.0"?><VTKFile type="PolyData" version="0.1" byte_order="LittleEndian">
<PolyData>
<Piece NumberOfLines="171" NumberOfPoints="958">
<PointData Scalars=" PointData">
<DataArray type="Float32" Name="time" NumberOfComponents="1" format="ascii" >
0 0.0421442 0.450568 0.845472 1.19233 1.59502 2.08269 2.54041 2.9451 3.36251 3.82547 4.21454 4.65562 5.10198 5.58017 6.04888 6.41029 6.85875 7.28694 7.68188 8.13942 8.60711 8.99049 9.36776 9.79944 10.2631 10.806 11.3639 11.9355 12.3699 12.8794 13.4671 14.0256 14.6194 15.0897 15.6512 16.2181 16.7316 17.2038 17.7468 18.4098 19.0127 19.5613 20.04 20.6016 21 2.69344 2.74826 3.58167 4.38832 5.21924 6.16108 7.07871 7.97367 8.85096 9.82382 10.6178 11.4592 12.4193 13.2715 14.4037 15.2168 16.1061 17.139 18.1245 19.208 20.2734 21 10.8918 13.0249 15.4095 18.1129 21 11.8753 13.826 16.0066 18.4788 21 12.8301 14.7403 16.8757 19.2966 21 13.8166 15.7961 18.0089 20.5177 21 14.9386 16.9992 19.3028 21 16.0357 18.0262 20.2514 21 17.1096 19.1675 21 18.1661 20.2924 21 19.3422 21 20.3057 21 3.12625 3.17296 4.02396 4.9795 5.74606 6.52298 7.3799 8.32649 9.01721 9.84409 10.8616 11.6588 12.6265 13.568 14.4328 15.3911 16.3745 17.3577 18.555 19.6944 20.7532 21 9.84904 12.3504 15.1467 18.3168 21 10.8265 12.7985 15 17.4988 20.3834 21 11.9271 13.9902 16.2966 18.9113 21 12.8125 15.0423 17.5351 20.3611 21 13.712 15.7524 18.0334 20.6193 21 14.7068 16.8341 19.2122 21 15.8091 18.4911 21 16.6156 18.8299 21 17.5837 19.9417 21 18.7789 21 19.7184 21 20.8626 21 3.54494 3.60529 4.34175 5.37339 6.31652 7.26067 8.10752 9.0562 10.08 11.1737 12.2418 13.3559 14.4022 15.4982 16.7041 17.7665 18.7986 19.738 21 14.6281 16.7552 19.1332 21 15.5173 17.5549 19.8327 21 16.7669 18.9398 21 17.9133 20.1248 21 19.065 21 20.1015 21 3.91288 3.97599 4.90886 5.90245 6.85067 7.77565 8.77918 9.92316 10.7991 11.6888 12.8414 14.0828 15.2802 16.4632 17.6579 18.9397 20.1537 21 14.9854 17.3132 19.9155 21 16.1027 18.1811 20.5045 21 17.2965 19.2352 21 18.4394 21 19.5578 21 20.7753 21 4.34026 4.38935 5.12509 5.8568 6.60861 7.60897 8.38061 9.09216 10.0014 10.8426 11.7183 12.689 13.477 14.4518 15.318 16.1426 16.9603 17.9551 18.9765 19.9815 20.9592 21 12.326 14.4615 16.8486 19.555 21 13.196 15.6257 18.3418 21 14.0637 16.0555 18.2822 20.8066 21 14.9578 17.4899 20.3206 21 16.1516 18.029 20.1277 21 17.0759 19.12 21 17.9308 19.8835 21 19.027 21 20.045 21 4.85813 4.90587 5.75571 6.57862 7.50189 8.43655 9.33525 10.1857 11.2669 12.1807 13.1915 14.201 15.0758 16.0282 17.0579 18.132 19.3742 20.4624 21 13.0029 15.1076 17.4605 20.128 21 13.9914 15.9181 18.0719 20.5137 21 14.951 17.6089 20.5802 21 16.0306 18.7728 21 17.1267 19.281 21 18.1838 20.1936 21 19.187 21 20.4665 21 5.34451 5.38818 6.06156 6.791 7.59197 8.37805 9.10128 9.95268 10.6798 11.404 12.2772 13.0813 14.0626 14.9807 16.0837 16.9431 17.906 18.9184 19.7657 20.6648 21 13.6131 15.6196 17.8627 20.4057 21 14.4143 16.7646 19.392 21 15.2846 17.3784 19.719 21 16.2433 18.172 20.328 21 17.1873 19.8136 21 18.0586 20.1934 21 19.0878 21 19.9698 21 20.8513 21 5.77479 5.82214 6.72578 7.65927 8.54009 9.34307 10.147 11.0219 12.0297 13.0033 13.914 14.8731 15.7282 16.6406 17.6105 18.6505 19.693 20.8918 21 15.1867 17.233 19.5205 21 16.2666 18.3085 20.591 21 17.386 19.3258 21 18.4458 20.71 21 19.4152 21 20.3888 21 6.21886 6.25577 6.94658 7.6118 8.29128 8.99325 9.83606 10.5182 11.2139 11.997 12.7185 13.4505 14.1672 14.9954 15.8009 16.5895 17.4442 18.2106 19.1029 20.0719 21 11.267 13.6159 16.2418 19.2187 21 12.0502 14.2781 16.7686 19.5921 21 12.8062 16.1142 19.8122 21 13.5801 15.821 18.3262 21 14.3817 16.6825 19.2545 21 15.3466 17.2819 19.4455 21 16.1298 18.2192 20.555 21 16.9305 18.9202 21 17.8346 19.5801 21 18.6697 20.9232 21 19.5196 21 20.3541 21 6.71167 6.76721 7.51843 8.16155 8.93712 9.67058 10.4268 11.4218 12.2376 13.1022 14.0237 15.1433 16.1381 17.1951 18.031 19.1394 20.0397 21 15.1882 17.4154 19.9051 21 16.075 18.0586 20.2761 21 16.836 19.145 21 17.7561 20.0408 21 18.6287 20.8593 21 19.5309 21 20.7219 21 7.12609 7.1874 8.08954 9.06739 10.0349 11.0313 12.041 13.0113 14.0491 15.0522 16.1869 17.3618 18.3483 19.3301 20.5601 21 15.8049 17.6698 19.7546 21 16.8569 18.6235 20.5984 21 18.0004 20.589 21 19.1351 21 20.3074 21 7.59618 7.64348 8.46231 9.23848 10.1584 11.0203 11.9257 12.7765 13.6086 14.5884 15.5026 16.3286 17.4336 18.3572 19.2766 20.2865 21 16.2678 18.4104 20.8058 21 17.2386 19.182 21 18.1615 19.8871 21 19.2588 21 20.2905 21 8.0722 8.11345 8.74144 9.34363 9.98295 10.6771 11.3037 11.919 12.5099 13.128 13.6583 14.3037 14.938 15.6112 16.2192 16.9801 17.865 18.6166 19.4988 20.3395 21 14.2315 16.4374 18.9034 21 14.9707 17.2868 19.876 21 15.6815 17.5899 19.7234 21 16.4385 18.4445 20.6871 21 17.263 19.3346 21 18.0098 20.244 21 18.7454 20.8718 21 19.4541 21 20.1978 21 20.8379 21 8.58251 8.62866 9.30192 9.94577 10.6061 11.4249 12.2009 13.0503 13.9515 14.7019 15.5195 16.3806 17.2797 18.2581 19.0736 19.9835 20.776 21 17.1087 19.1528 21 17.914 19.7839 21 18.6861 20.8284 21 19.4802 21 20.4681 21 9.08305 9.14084 10.1474 10.9107 11.7836 12.5579 13.5146 14.3988 15.3556 16.5399 17.6714 18.7663 19.6777 20.9406 21 18.3838 20.7549 21 19.5746 21 20.4803 21 9.46924 9.52651 10.275 11.0461 11.8167 12.7193 13.6502 14.5604 15.4909 16.3371 17.2383 18.3049 19.2998 20.2504 21 17.1322 19.3116 21 18.0032 20.0508 21 18.9028 21 19.8041 21 20.8627 21 9.94874 10.009 10.8241 11.7452 12.7454 13.495 14.371 15.2807 16.2054 17.1214 18.0846 19.2684 20.3336 21 17.8817 20.4219 21 18.8319 21 19.9086 21 10.4069 10.4616 11.2654 12.189 12.9956 14.0589 14.9654 15.7921 16.6593 17.7287 18.6996 19.6276 20.5663 21 18.0958 20.1001 21 19.0272 20.7632 21 20.1003 21 10.8297 10.8773 11.5594 12.2569 13.068 13.8391 14.6634 15.4535 16.2072 17.0599 17.8107 18.6898 19.4548 20.3158 21 17.5576 19.7716 21 18.3468 20.5016 21 19.1558 21 20.099 21 20.9982 21 11.3199 11.3901 12.4957 13.748 15.0754 16.5564 17.988 19.388 20.8483 21 11.8213 11.8771 12.6886 13.8397 14.8703 16.0069 17.0111 17.8924 19.1541 20.482 21 20.8008 21 12.2326 12.2798 13.1415 13.9522 14.7389 15.5554 16.3363 17.0024 17.8236 18.6438 19.5168 20.4512 21 20.6886 21 12.6375 12.6836 13.535 14.6433 15.6171 16.6308 17.581 18.5921 19.645 20.6424 21 13.1012 13.1613 13.9054 14.6261 15.4128 16.3033 17.0278 17.8502 18.875 19.6915 20.8151 21 20.6974 21 13.5997 13.6455 14.4162 15.1702 15.8578 16.687 17.6094 18.2988 19.0469 19.8296 20.7149 21 14.1837 14.2329 14.9973 15.7758 16.5898 17.3925 18.1821 18.9738 19.7728 20.6693 21 14.7845 14.823 15.6364 16.3483 17.1845 18.1634 19.1269 20.02 21 20.9373 21 15.4005 15.4335 16.19 17.0054 17.5998 18.4259 19.2551 19.9987 20.9048 21 15.8691 15.9191 16.9059 17.7629 18.582 19.5249 20.5132 21 16.4192 16.4696 17.1931 18.0127 18.8268 19.4467 20.2117 20.9397 21 17.0544 17.0937 17.906 18.6631 19.4599 20.276 21 17.6585 17.7069 18.3119 18.9301 19.673 20.3033 21 18.3015 18.3607 19.3323 20.1385 21 18.8113 18.8628 19.6412 20.6187 21 19.4204 19.473 20.2566 21 20.0361 20.0951 20.8284 21 20.5944 20.6473 21 
</DataArray>

</PointData>
<CellData Scalars=" CellData">
<DataArray type="Float32" Name="radius" NumberOfComponents="1" format="ascii" >
0.0548673 0.0277312 0.0197759 0.0213645 0.0204246 0.0247367 0.0192142 0.015468 0.0201995 0.0238964 0.0233779 0.0186599 0.029948 0.0170979 0.0197836 0.0200579 0.0224551 0.0187323 0.0172573 0.0193058 0.023274 0.019937 0.0231383 0.0201656 0.0251083 0.0250211 0.0181972 0.0199865 0.0175248 0.020025 0.0210062 0.0184851 0.027874 0.0194322 0.0161257 0.0179166 0.0222295 0.0178913 0.0214024 0.0341722 0.0189638 0.0203736 0.0217133 0.0192306 0.0183053 0.0173497 0.0181299 0.0166891 0.0221477 0.0240752 0.0213167 0.0200032 0.0186402 0.0195545 0.0217862 0.0217848 0.0234472 0.0221157 0.029017 0.0184869 0.0167125 0.0194042 0.0204331 0.0218983 0.0158283 0.0197116 0.0262085 0.0215552 0.0273713 0.017079 0.0198928 0.0190576 0.0189741 0.021983 0.0203252 0.0301361 0.0192443 0.0182314 0.0202073 0.0183447 0.0216768 0.0173378 0.0216532 0.0233886 0.0180948 0.0166254 0.0242758 0.018913 0.0252178 0.018634 0.0232421 0.0194369 0.0208162 0.0196417 0.0185653 0.0206178 0.0266038 0.0123285 0.0185029 0.0170604 0.0223347 0.0211966 0.0257356 0.0202138 0.0167264 0.0179685 0.0241237 0.0213869 0.0238428 0.0192663 0.016525 0.0219889 0.0235221 0.019217 0.0196426 0.0244696 0.0199019 0.0181621 0.019897 0.0303854 0.0214923 0.0169916 0.0185736 0.0206564 0.0235133 0.0254538 0.0181356 0.0172182 0.0192321 0.0296435 0.0235003 0.0208856 0.0197768 0.020679 0.0208148 0.0281379 0.0208887 0.0185305 0.020427 0.025745 0.0222469 0.0193613 0.0165474 0.0274398 0.020235 0.0224058 0.0185815 0.0233631 0.0197003 0.0249232 0.0275986 0.0194819 0.0234537 0.0184506 0.0235653 0.0278862 0.0210251 0.0291034 0.0264034 0.0283398 0.0237893 0.0289325 0.0251081 0.0299372 0.0265317 0.0284549 0.0279526 0.0345265 0.0298526 0.0268382 0.0284529 
</DataArray>
<DataArray type="Float32" Name="subType" NumberOfComponents="1" format="ascii" >
1 2 3 3 3 3 3 3 3 3 3 3 2 3 3 3 3 3 3 3 3 3 3 3 3 2 3 3 3 3 3 3 2 3 3 3 3 3 3 2 3 3 3 3 3 3 3 3 3 2 3 3 3 3 3 3 3 3 2 3 3 3 3 3 3 3 3 3 2 3 3 3 3 3 3 2 3 3 3 3 3 3 3 3 3 3 3 3 2 3 3 3 3 3 3 3 2 3 3 3 3 3 2 3 3 3 3 3 2 3 3 3 3 3 3 3 3 3 3 2 3 3 3 3 3 2 3 3 3 2 3 3 3 3 3 2 3 3 3 2 3 3 3 2 3 3 3 3 3 2 2 3 2 3 2 2 3 2 2 2 3 2 2 2 2 2 2 2 2 2 2 
</DataArray>
<DataArray type="Float32" Name="creationTime" NumberOfComponents="1" format="ascii" >
0 2.69344 10.8918 11.8753 12.8301 13.8166 14.9386 16.0357 17.1096 18.1661 19.3422 20.3057 3.12625 9.84904 10.8265 11.9271 12.8125 13.712 14.7068 15.8091 16.6156 17.5837 18.7789 19.7184 20.8626 3.54494 14.6281 15.5173 16.7669 17.9133 19.065 20.1015 3.91288 14.9854 16.1027 17.2965 18.4394 19.5578 20.7753 4.34026 12.326 13.196 14.0637 14.9578 16.1516 17.0759 17.9308 19.027 20.045 4.85813 13.0029 13.9914 14.951 16.0306 17.1267 18.1838 19.187 20.4665 5.34451 13.6131 14.4143 15.2846 16.2433 17.1873 18.0586 19.0878 19.9698 20.8513 5.77479 15.1867 16.2666 17.386 18.4458 19.4152 20.3888 6.21886 11.267 12.0502 12.8062 13.5801 14.3817 15.3466 16.1298 16.9305 17.8346 18.6697 19.5196 20.3541 6.71167 15.1882 16.075 16.836 17.7561 18.6287 19.5309 20.7219 7.12609 15.8049 16.8569 18.0004 19.1351 20.3074 7.59618 16.2678 17.2386 18.1615 19.2588 20.2905 8.0722 14.2315 14.9707 15.6815 16.4385 17.263 18.0098 18.7454 19.4541 20.1978 20.8379 8.58251 17.1087 17.914 18.6861 19.4802 20.4681 9.08305 18.3838 19.5746 20.4803 9.46924 17.1322 18.0032 18.9028 19.8041 20.8627 9.94874 17.8817 18.8319 19.9086 10.4069 18.0958 19.0272 20.1003 10.8297 17.5576 18.3468 19.1558 20.099 20.9982 11.3199 11.8213 20.8008 12.2326 20.6886 12.6375 13.1012 20.6974 13.5997 14.1837 14.7845 20.9373 15.4005 15.8691 16.4192 17.0544 17.6585 18.3015 18.8113 19.4204 20.0361 20.5944 
</DataArray>

</CellData>
<Points>
<DataArray type="Float32" Name="Coordinates" NumberOfComponents="3" format="ascii" >
0 0 -3 -0.000656198 0.00156591 -3.08398 0.0813919 -0.0101194 -3.88973 0.142003 -0.0563773 -4.66235 0.311529 -0.101419 -5.31565 0.484196 -0.180074 -6.07113 0.641871 -0.335482 -6.97872 0.768919 -0.460004 -7.82817 0.712022 -0.613268 -8.57052 0.700752 -0.650534 -9.34661 0.704671 -0.656059 -10.2002 0.602175 -0.745 -10.8979 0.465189 -0.805898 -11.6822 0.299964 -0.887502 -12.4611 0.405406 -1.05996 -13.2854 0.46116 -1.19921 -14.0951 0.586789 -1.29392 -14.7044 0.560524 -1.4011 -15.4704 0.509848 -1.41454 -16.2005 0.44939 -1.49512 -16.8619 0.427921 -1.60398 -17.6218 0.285729 -1.55615 -18.3843 0.168994 -1.51964 -19.0035 0.111383 -1.3938 -19.6038 0.106035 -1.27637 -20.2925 0.17949 -1.10024 -21.0108 0.127695 -0.928931 -21.8526 0.0385427 -0.73427 -22.6998 -0.128671 -0.450266 -23.5205 -0.122441 -0.333152 -24.1748 -0.101745 -0.224725 -24.9387 0.0388942 -0.154202 -25.8043 0.0833191 -0.0884991 -26.6261 -0.0594945 0.138542 -27.4504 -0.166346 0.17244 -28.1197 -0.309682 0.223234 -28.9062 -0.0960605 0.11318 -29.6682 -0.00441612 -0.0422591 -30.3604 0.0832354 -0.182223 -30.9898 0.18226 -0.338121 -31.7065 0.318882 -0.500076 -32.573 0.209275 -0.639979 -33.3528 0.344592 -0.596791 -34.0574 0.481722 -0.570395 -34.6618 0.631244 -0.440727 -35.3535 0.736349 -0.368837 -35.8423 -0.000656198 0.00156591 -3.08398 -0.0393872 0.0377232 -3.09692 -0.647515 0.567712 -3.25384 -1.23168 1.06986 -3.39056 -1.80708 1.59581 -3.5344 -2.42189 2.21114 -3.3846 -3.00757 2.80098 -3.2383 -3.53167 3.32603 -2.91753 -4.04925 3.84567 -2.65717 -4.56486 4.4059 -2.28583 -4.95363 4.80154 -1.89394 -5.36474 5.02566 -1.36288 -5.83094 5.34391 -0.805484 -6.19923 5.61998 -0.28953 -6.82728 5.94092 0.270104 -7.16875 6.19325 0.741026 -7.60058 6.24577 1.26593 -8.10986 6.33679 1.84517 -8.55809 6.44954 2.40514 -9.0442 6.65007 2.98362 -9.4254 6.83298 3.60584 -9.75616 6.95291 3.96652 -0.0393872 0.0377232 -3.09692 0.281616 0.898409 -3.49211 0.206762 1.76172 -3.9912 -0.0514778 2.56698 -4.52492 -0.213834 3.43519 -4.81705 -0.647515 0.567712 -3.25384 -1.04982 1.0358 -2.46704 -1.38395 1.39288 -1.59477 -1.67923 1.80244 -0.731599 -2.37672 2.1654 -0.312136 -1.23168 1.06986 -3.39056 -1.32251 1.43868 -4.31561 -1.49239 1.67136 -5.27321 -1.60872 1.88396 -6.2434 -1.55911 1.93962 -6.86668 -1.80708 1.59581 -3.5344 -2.02578 1.93365 -2.61896 -2.07004 2.68187 -1.95699 -2.3776 3.5766 -1.63315 -2.43819 3.73579 -1.58354 -2.42189 2.21114 -3.3846 -2.24332 2.95952 -2.74583 -2.06391 3.70034 -2.09853 -1.86021 4.16895 -1.673 -3.00757 2.80098 -3.2383 -3.96062 2.49829 -3.23 -4.89345 2.19154 -3.04095 -5.18772 2.10289 -2.99449 -3.53167 3.32603 -2.91753 -4.50413 3.09429 -2.9422 -5.29697 3.12636 -3.08357 -4.04925 3.84567 -2.65717 -4.94278 3.88528 -3.10442 -5.22834 3.91179 -3.22233 -4.56486 4.4059 -2.28583 -5.3261 4.27637 -2.29033 -4.95363 4.80154 -1.89394 -4.82027 4.85967 -1.57473 0.0813919 -0.0101194 -3.88973 0.12683 -0.00566707 -3.87819 0.956643 0.0785611 -3.71482 1.87303 0.201692 -3.56434 2.58023 0.313648 -3.38422 3.30465 0.361245 -3.26012 4.07923 0.397229 -3.06813 4.92361 0.28328 -2.91202 5.52844 0.210162 -2.78903 6.23455 0.0205167 -2.74408 7.05068 -0.320369 -2.73609 7.69539 -0.536814 -2.74326 8.46785 -0.782139 -2.76714 9.17561 -1.08807 -2.70647 9.81878 -1.33664 -2.60175 10.4908 -1.66087 -2.46552 11.1474 -1.98682 -2.25415 11.7929 -2.32016 -2.0781 12.5571 -2.71475 -1.84854 13.2938 -2.99868 -1.60239 13.9338 -3.25718 -1.30565 14.0884 -3.30172 -1.24251 0.12683 -0.00566707 -3.87819 0.734312 -0.707799 -3.50674 1.34177 -1.4117 -3.13862 1.95917 -2.18768 -3.00947 2.36388 -2.80508 -2.88856 0.956643 0.0785611 -3.71482 1.49979 -0.698985 -4.03171 2.27568 -1.08739 -4.52632 3.07077 -1.52785 -4.94326 3.87448 -1.95308 -5.35945 4.00892 -2.05289 -5.45842 1.87303 0.201692 -3.56434 2.04754 0.908126 -2.87841 1.85595 1.67413 -2.26479 1.48603 2.42427 -1.71666 1.0224 2.8367 -1.3753 2.58023 0.313648 -3.38422 3.23345 -0.366449 -3.71704 3.77495 -1.15326 -4.01319 4.34235 -1.92854 -4.29069 4.48024 -2.07309 -4.34914 3.30465 0.361245 -3.26012 3.96598 -0.269865 -3.66552 4.65011 -0.873624 -4.07471 5.15484 -1.62504 -4.49971 5.22734 -1.72289 -4.5608 4.07923 0.397229 -3.06813 4.82216 1.06068 -3.157 5.56582 1.72331 -3.24581 6.10277 2.13316 -3.30317 4.92361 0.28328 -2.91202 5.30156 -0.412223 -3.52311 5.48177 -1.06436 -4.02889 5.52844 0.210162 -2.78903 5.99332 0.741766 -2.08102 6.27798 1.15919 -1.35696 6.23455 0.0205167 -2.74408 6.62322 -0.210598 -1.85216 6.75478 -0.241386 -1.45905 7.05068 -0.320369 -2.73609 7.67348 0.011812 -2.04732 7.69539 -0.536814 -2.74326 8.21622 0.0257895 -2.89065 8.46785 -0.782139 -2.76714 8.48132 -0.83235 -2.79406 0.142003 -0.0563773 -4.66235 0.0943047 -0.0687316 -4.64266 -0.409187 -0.431043 -4.47267 -0.979419 -1.02898 -4.14859 -1.60863 -1.42701 -3.86169 -2.23117 -1.78666 -3.54391 -2.79341 -2.08288 -3.26398 -3.34059 -2.43859 -2.86269 -3.80727 -2.47293 -2.19777 -4.36338 -2.53974 -1.55431 -4.85869 -2.62057 -0.90833 -5.27685 -2.65764 -0.183609 -5.68583 -2.71559 0.468957 -6.1406 -2.82957 1.11022 -6.62833 -2.95488 1.80384 -7.11808 -2.97724 2.35912 -7.59932 -3.05865 2.87048 -8.01724 -3.14151 3.3383 -8.56766 -3.24259 3.95702 0.0943047 -0.0687316 -4.64266 -0.781326 0.266653 -4.99021 -1.53228 0.5782 -5.57244 -1.97614 0.619762 -6.1206 -0.409187 -0.431043 -4.47267 -0.118258 -1.26827 -4.00963 -0.0456321 -2.20226 -3.65978 0.00793256 -2.66002 -3.57501 -0.979419 -1.02898 -4.14859 -1.8664 -1.09937 -4.60499 -2.64169 -1.19328 -4.95458 -1.60863 -1.42701 -3.86169 -1.96221 -1.16509 -2.9637 -2.05035 -1.15888 -2.60691 -2.23117 -1.78666 -3.54391 -2.79192 -1.5603 -3.04364 -2.79341 -2.08288 -3.26398 -2.815 -1.95924 -2.86321 0.311529 -0.101419 -5.31565 0.340378 -0.142352 -5.30252 0.659223 -0.772504 -5.02431 1.06129 -1.40505 -4.75658 1.37512 -2.07439 -4.64476 1.51455 -2.77549 -4.57413 1.66541 -3.52403 -4.49971 1.80606 -4.36462 -4.61051 1.79001 -4.99374 -4.76243 1.74416 -5.61816 -4.93008 1.52643 -6.40257 -5.06912 1.31669 -7.2337 -5.23105 1.1921 -8.02703 -5.41977 1.34735 -8.79246 -5.59022 1.49946 -9.55087 -5.75971 1.65986 -10.3482 -5.93811 1.8888 -11.0696 -6.09439 2.03439 -11.5714 -6.18194 0.340378 -0.142352 -5.30252 0.612433 -0.397557 -4.37469 0.962794 -0.631515 -3.46777 1.1793 -0.605872 -3.1526 0.659223 -0.772504 -5.02431 0.447649 -0.531944 -4.07701 0.278439 -0.0445075 -3.22041 0.256945 0.0478208 -3.04609 1.06129 -1.40505 -4.75658 0.828319 -2.24445 -5.24763 0.583407 -2.90719 -5.66979 1.37512 -2.07439 -4.64476 1.46165 -2.42815 -3.86131 1.51455 -2.77549 -4.57413 1.08694 -3.2311 -4.60441 1.66541 -3.52403 -4.49971 1.66826 -3.58343 -4.59003 0.484196 -0.180074 -6.07113 0.505722 -0.136315 -6.05408 0.852469 0.431555 -5.67046 1.16749 0.950766 -5.22667 1.59192 1.35892 -4.74472 2.15778 1.82312 -4.07202 2.60129 2.17601 -3.5767 2.99301 2.54437 -3.15493 3.35512 3.02551 -2.54296 3.57238 3.46225 -1.93446 3.74608 3.91575 -1.30188 3.94091 4.41946 -0.62365 4.148 4.89879 -0.171042 4.3418 5.39603 0.476549 4.528 5.82124 1.0418 4.69522 6.2026 1.58452 4.7736 6.54864 2.14911 4.86921 6.89378 2.85997 5.1434 7.126 3.57496 5.41542 7.33855 4.26412 5.78485 7.40165 4.8958 5.80006 7.40414 4.92193 0.505722 -0.136315 -6.05408 0.406761 0.80368 -6.3806 0.235589 1.7253 -6.72891 0.349061 2.58805 -7.22165 0.366619 2.99928 -7.47186 0.852469 0.431555 -5.67046 0.317344 0.44829 -4.82586 -0.0874204 0.266077 -3.92977 -0.510025 0.197171 -3.17126 1.16749 0.950766 -5.22667 2.12913 1.10038 -4.99678 3.1203 1.08577 -4.86493 4.09502 0.950143 -5.04246 4.16452 0.9419 -5.05585 1.59192 1.35892 -4.74472 2.26039 1.98775 -5.14187 2.74412 2.43888 -5.89185 2.85199 2.53933 -6.05921 2.15778 1.82312 -4.07202 3.14087 1.64006 -4.07486 4.09229 1.33262 -4.09198 4.45127 1.25226 -4.19577 2.60129 2.17601 -3.5767 2.10741 3.0193 -3.36469 1.7198 3.72275 -3.15077 2.99301 2.54437 -3.15493 2.71073 3.35298 -2.63873 2.3715 3.74482 -2.54806 3.35512 3.02551 -2.54296 4.21243 3.49266 -2.75139 3.57238 3.46225 -1.93446 3.38111 3.95356 -2.04404 0.641871 -0.335482 -6.97872 0.685114 -0.335329 -6.98139 1.44325 -0.330332 -7.08255 2.16117 -0.349418 -7.20919 2.96551 -0.359395 -7.17599 3.75373 -0.422584 -7.04753 4.50254 -0.481733 -7.14429 5.19188 -0.574936 -7.25994 6.03419 -0.632739 -7.51038 6.73725 -0.559752 -7.69533 7.43464 -0.503519 -8.07072 8.11734 -0.451815 -8.44063 8.70168 -0.393638 -8.74795 9.34046 -0.423247 -9.05519 9.99374 -0.252854 -9.38877 10.7139 -0.227029 -9.6611 11.4022 -0.57857 -10.0652 11.9803 -0.901104 -10.4126 12.2409 -1.0254 -10.6341 0.685114 -0.335329 -6.98139 1.1464 -0.114454 -7.84071 1.54212 0.0696561 -8.74043 1.87562 0.392466 -9.62619 1.96717 0.491197 -9.89315 1.44325 -0.330332 -7.08255 1.90683 0.476927 -6.71727 2.37933 1.23655 -6.27038 2.87619 2.01571 -5.88823 2.96481 2.14509 -5.79252 2.16117 -0.349418 -7.20919 2.77539 -0.819508 -6.57536 3.38684 -1.28071 -5.93238 3.47427 -1.33736 -5.85126 2.96551 -0.359395 -7.17599 3.6105 0.402289 -7.11414 4.03251 1.00452 -7.05014 3.75373 -0.422584 -7.04753 4.36476 -0.88014 -6.40155 4.83923 -1.22431 -5.97364 4.50254 -0.481733 -7.14429 4.78801 0.204014 -6.47477 4.82869 0.450553 -6.1985 5.19188 -0.574936 -7.25994 5.58667 -0.156172 -7.77523 6.03419 -0.632739 -7.51038 6.21271 -0.810146 -7.36021 0.768919 -0.460004 -7.82817 0.73564 -0.489704 -7.82161 0.228677 -0.931411 -7.66708 -0.338361 -1.37341 -7.50749 -0.941968 -1.892 -7.5107 -1.54178 -2.36409 -7.4249 -2.12148 -2.74066 -7.3474 -2.78904 -3.18233 -7.2575 -3.36496 -3.49407 -7.0875 -3.92243 -3.80681 -6.90858 -4.65265 -4.08873 -6.82726 -5.25191 -4.45823 -6.93416 -5.9603 -4.91669 -7.05786 -6.60983 -5.32554 -7.20906 -7.36903 -5.81007 -7.39702 -7.97309 -6.13166 -7.55471 -8.68095 -6.43532 -7.60577 -9.4341 -6.68283 -7.54615 -10.0374 -6.93123 -7.53749 -10.6722 -7.1701 -7.49142 -10.9031 -7.26602 -7.48148 0.73564 -0.489704 -7.82161 0.750159 -1.42937 -8.16339 0.636202 -2.24514 -8.73042 0.50968 -3.04699 -9.31441 0.486072 -3.21751 -9.44333 0.228677 -0.931411 -7.66708 -0.598223 -1.12354 -7.13857 -1.4683 -1.09194 -6.64666 -1.96608 -1.02524 -6.40729 -0.338361 -1.37341 -7.50749 -1.23856 -1.22057 -7.91526 -2.17556 -1.18489 -8.26277 -2.63334 -1.19389 -8.46218 -0.941968 -1.892 -7.5107 -1.79674 -1.45396 -7.23233 -2.66801 -1.06238 -6.93644 -2.91565 -0.944401 -6.84756 -1.54178 -2.36409 -7.4249 -2.01491 -2.47912 -8.29835 -2.29041 -2.48951 -8.61297 -2.12148 -2.74066 -7.3474 -2.33613 -3.379 -6.60817 -2.51311 -3.51872 -6.33886 -2.78904 -3.18233 -7.2575 -2.94622 -2.98002 -6.45345 -3.36496 -3.49407 -7.0875 -3.59123 -3.49952 -6.67005 -3.92243 -3.80681 -6.90858 -3.93116 -3.86868 -6.92618 0.712022 -0.613268 -8.57052 0.755336 -0.597063 -8.57334 1.60381 -0.420273 -8.70328 2.4902 -0.380598 -8.76997 3.31267 -0.345686 -8.82935 4.04986 -0.309845 -8.89002 4.7772 -0.247118 -8.91038 5.55936 -0.259958 -8.9035 6.43742 -0.340221 -8.98176 7.20737 -0.58224 -9.21265 7.80374 -0.889443 -9.59338 8.42091 -1.20716 -9.98738 8.93619 -1.61413 -10.2285 9.48834 -2.01173 -10.5042 10.0402 -2.42309 -10.8417 10.5495 -2.84087 -11.3071 11.0837 -3.23832 -11.7376 11.6852 -3.68566 -12.2223 11.7388 -3.72555 -12.2655 0.755336 -0.597063 -8.57334 1.13914 -1.29582 -9.17702 1.66944 -2.03743 -9.58786 1.97325 -2.47413 -9.83546 1.60381 -0.420273 -8.70328 2.08256 -0.575416 -9.56741 2.50381 -0.944289 -10.396 2.57598 -1.00219 -10.535 2.4902 -0.380598 -8.76997 3.02121 -1.11404 -8.34559 3.55341 -1.6697 -8.20422 3.31267 -0.345686 -8.82935 3.48485 -1.32916 -8.77338 3.50469 -1.44813 -8.77566 4.04986 -0.309845 -8.89002 4.44477 -0.861978 -9.07952 4.7772 -0.247118 -8.91038 4.93152 -0.209787 -8.64094 0.700752 -0.650534 -9.34661 0.718901 -0.612154 -9.33419 1.05576 0.0993876 -9.10337 1.41019 0.764171 -8.91397 1.78978 1.43319 -8.78277 2.15935 2.12807 -8.69043 2.53014 2.96004 -8.48678 2.79794 3.61625 -8.26971 3.05384 4.2658 -8.01513 3.3236 4.9926 -7.74369 3.56658 5.65149 -7.50229 3.80879 6.30736 -7.25962 4.00161 6.9636 -7.06333 4.35019 7.69074 -7.04013 4.76634 8.33546 -6.99218 5.2509 8.89176 -7.00893 5.50671 9.62275 -7.12902 5.84483 10.2167 -7.21355 6.22639 10.9002 -7.27821 6.69553 11.5882 -7.31499 7.13539 12.2309 -7.35194 0.718901 -0.612154 -9.33419 1.22303 0.121514 -9.78981 1.77762 0.871612 -10.1501 2.26685 1.62016 -10.5976 2.541 2.00633 -10.8519 1.05576 0.0993876 -9.10337 0.936616 0.580667 -8.23494 0.578694 1.0112 -7.40637 -0.0836581 1.26102 -6.70005 -0.327417 1.30246 -6.32298 1.41019 0.764171 -8.91397 0.687043 1.2776 -8.45197 -0.0674696 1.81968 -8.08202 -0.289679 1.98597 -7.9763 1.78978 1.43319 -8.78277 2.7851 1.34923 -8.73492 3.76118 1.1498 -8.64832 4.6743 1.06934 -8.87832 2.15935 2.12807 -8.69043 1.73801 2.9916 -8.41332 1.30975 3.84968 -8.12997 1.10167 4.41954 -8.0318 2.53014 2.96004 -8.48678 1.89424 3.72511 -8.38538 1.18173 4.37571 -8.64817 0.604809 4.58522 -8.8596 2.79794 3.61625 -8.26971 3.11162 4.29771 -8.93094 3.50633 4.84678 -9.66764 3.58307 4.93585 -9.80064 3.05384 4.2658 -8.01513 2.64553 4.66207 -7.19279 2.32706 4.75137 -6.31445 3.3236 4.9926 -7.74369 2.81519 5.83283 -7.55518 2.51613 6.5071 -7.50646 3.56658 5.65149 -7.50229 4.14184 5.68349 -6.68495 4.16048 5.68461 -6.65862 3.80879 6.30736 -7.25962 3.86751 6.72816 -7.82606 4.00161 6.9636 -7.06333 4.32195 7.03087 -7.07731 0.704671 -0.656059 -10.2002 0.755025 -0.677264 -10.2074 1.37198 -1.06999 -10.318 1.89648 -1.36731 -10.4814 2.53686 -1.68319 -10.6865 3.13748 -1.92488 -10.9317 3.75963 -2.17061 -11.1494 4.4853 -2.70968 -11.2531 4.93623 -3.21705 -11.5296 5.3666 -3.74438 -11.877 5.82858 -4.28593 -12.2428 6.41827 -4.94427 -12.5998 6.93225 -5.49815 -12.9422 7.5632 -6.00048 -13.2522 8.10216 -6.30785 -13.5071 8.7744 -6.73248 -13.8667 9.27767 -7.08591 -14.1906 9.8017 -7.45667 -14.5341 0.755025 -0.677264 -10.2074 0.801614 -1.54873 -10.6957 0.94096 -2.33023 -11.3038 1.02018 -2.60394 -11.5899 1.37198 -1.06999 -10.318 2.16532 -0.678929 -9.85145 3.064 -0.339967 -9.57311 3.3345 -0.232393 -9.49355 1.89648 -1.36731 -10.4814 1.87611 -2.07247 -11.1901 1.72084 -2.6211 -11.6467 2.53686 -1.68319 -10.6865 3.35729 -1.11755 -10.7698 3.68294 -0.915647 -10.8393 3.13748 -1.92488 -10.9317 3.64773 -2.15856 -10.104 3.67972 -2.17211 -10.0556 3.75963 -2.17061 -11.1494 3.90715 -2.62334 -11.6286 4.4853 -2.70968 -11.2531 4.60038 -2.66983 -11.1774 0.602175 -0.745 -10.8979 0.594263 -0.692915 -10.8964 0.60746 0.0410581 -10.6675 0.733984 0.848706 -10.607 0.715777 1.64304 -10.5418 0.775255 2.44269 -10.4511 0.758491 3.24276 -10.5211 0.713745 3.99318 -10.4197 0.613808 4.7742 -10.2961 0.499572 5.50526 -10.1378 0.333377 6.31863 -10.0106 0.208143 7.16125 -10.0266 0.216578 7.86307 -10.019 0.103491 8.53452 -9.93166 -0.062997 9.35235 -9.81032 -0.13825 9.6394 -9.82685 0.594263 -0.692915 -10.8964 0.572145 0.00390996 -10.1795 0.38438 0.523321 -9.34587 0.230573 0.826688 -8.92192 0.60746 0.0410581 -10.6675 1.46828 0.395848 -10.3027 2.28129 0.889592 -9.9941 2.44282 0.955174 -9.92017 0.733984 0.848706 -10.607 0.0774226 1.33548 -11.1832 -0.0192935 1.40816 -11.2706 0.715777 1.64304 -10.5418 1.20184 2.0199 -9.93739 0.775255 2.44269 -10.4511 0.899383 2.60546 -10.7419 0.465189 -0.805898 -11.6822 0.456153 -0.847447 -11.6646 0.30119 -1.5658 -11.3738 0.325705 -2.21141 -11.018 0.368702 -2.91977 -10.5327 0.39768 -3.56411 -10.0737 0.464876 -4.19895 -9.5634 0.50508 -4.74986 -9.04885 0.496318 -5.37111 -8.67259 0.419384 -6.15866 -8.39024 0.321475 -6.87148 -8.11735 0.174583 -7.49065 -7.86793 0.0649919 -8.32555 -7.55782 -0.0214503 -9.00974 -7.30298 -0.14346 -9.68197 -7.07933 -0.137198 -10.3902 -6.76513 -0.133016 -10.8849 -6.55296 0.456153 -0.847447 -11.6646 -0.464284 -1.14701 -11.4135 -1.3865 -1.48058 -11.2179 -1.45581 -1.5051 -11.1985 0.30119 -1.5658 -11.3738 -0.638205 -1.86988 -11.2154 -1.46121 -2.04532 -11.1411 0.325705 -2.21141 -11.018 1.14816 -2.76706 -11.1398 1.63686 -3.08804 -11.2276 0.368702 -2.91977 -10.5327 0.77672 -3.67631 -10.873 0.39768 -3.56411 -10.0737 0.660672 -3.66255 -9.97427 0.299964 -0.887502 -12.4611 0.258303 -0.855918 -12.4484 -0.347684 -0.363037 -12.2278 -0.884593 0.129877 -11.9928 -1.49583 0.620664 -11.8341 -2.15359 1.13359 -11.6543 -2.74462 1.5856 -11.5157 -3.37144 1.94539 -11.4052 -3.94612 2.32432 -11.3438 -4.51504 2.72053 -11.1841 -5.02606 2.97105 -10.9904 -5.62025 3.30098 -10.7514 -6.17771 3.58971 -10.4506 -6.69936 3.83138 -10.0069 -7.21208 4.06562 -9.69366 -7.82142 4.29864 -9.24343 -8.32292 4.87959 -8.76954 -8.78322 5.30426 -8.35741 -9.03518 5.84632 -7.73747 -9.39576 6.265 -7.15583 -9.66468 6.59281 -6.70631 0.258303 -0.855918 -12.4484 -0.237091 -0.607412 -11.6161 -0.387713 -0.189446 -10.7202 -0.387899 0.258686 -10.1035 -0.347684 -0.363037 -12.2278 -1.0547 -1.03162 -12.4583 -1.66744 -1.79907 -12.6469 -1.94725 -2.08269 -12.664 -0.884593 0.129877 -11.9928 -1.07951 0.262147 -11.0209 -1.28663 0.648599 -10.1222 -1.39982 0.847104 -9.62803 -1.49583 0.620664 -11.8341 -0.909647 1.29788 -12.2788 -0.358279 2.12627 -12.3776 -0.294536 2.23902 -12.3926 -2.15359 1.13359 -11.6543 -2.21885 1.97929 -11.1246 -2.25991 2.59782 -10.7374 -2.74462 1.5856 -11.5157 -3.60481 1.08557 -11.4155 -3.8866 0.946985 -11.388 -3.37144 1.94539 -11.4052 -3.52723 2.70926 -12.0315 -3.53705 2.75303 -12.0666 -3.94612 2.32432 -11.3438 -4.14468 2.5606 -10.7649 -4.51504 2.72053 -11.1841 -4.62985 2.73138 -10.8622 -5.02606 2.97105 -10.9904 -5.07281 3.00206 -11.0381 0.405406 -1.05996 -13.2854 0.452182 -1.04467 -13.2832 1.08921 -0.730032 -13.3464 1.69197 -0.431244 -13.3536 2.26672 -0.110165 -13.5263 2.97649 0.278698 -13.7152 3.63199 0.662612 -13.866 4.28316 1.09544 -14.1549 5.00991 1.49275 -14.4152 5.6371 1.79147 -14.5647 6.31082 2.06001 -14.7971 6.91223 2.50319 -15.0482 7.53945 2.96565 -15.2613 8.20868 3.46699 -15.4709 8.75847 3.8685 -15.6544 9.40975 4.26812 -15.7689 9.96473 4.61461 -15.8637 10.1226 4.70938 -15.8804 0.452182 -1.04467 -13.2832 0.668509 -0.389143 -12.5597 0.85639 0.149925 -11.9747 1.08921 -0.730032 -13.3464 1.22971 0.0803102 -13.9153 1.30389 0.602295 -14.1933 1.69197 -0.431244 -13.3536 1.76499 0.323055 -14.006 1.76136 0.380507 -14.0551 2.26672 -0.110165 -13.5263 2.89756 -0.564116 -13.6895 2.97649 0.278698 -13.7152 3.11777 0.389502 -13.5272 0.46116 -1.19921 -14.0951 0.428699 -1.23861 -14.1075 -0.0651532 -1.92716 -14.4285 -0.249454 -2.50649 -14.7247 -0.400462 -3.20147 -14.9985 -0.380456 -3.70521 -15.4337 -0.529024 -4.28794 -15.9766 -0.670139 -4.78078 -16.5054 -0.751808 -5.38141 -17.0024 -0.767307 -6.23192 -17.4291 -0.709131 -7.02489 -17.8302 -0.713234 -7.79531 -18.1765 -0.778578 -8.35202 -18.5797 -0.770619 -9.21622 -18.945 -0.770868 -9.25734 -18.9594 0.428699 -1.23861 -14.1075 0.123863 -1.40969 -15.0444 0.0925182 -1.4097 -15.1367 -0.0651532 -1.92716 -14.4285 -0.383695 -2.43955 -14.0191 -0.249454 -2.50649 -14.7247 -0.46142 -2.57053 -14.6715 0.586789 -1.29392 -14.7044 0.578742 -1.23859 -14.7082 0.368416 -0.552549 -14.8232 0.0809074 0.122881 -14.8946 -0.225109 0.767316 -14.7608 -0.561935 1.49686 -14.5292 -0.887574 2.16638 -14.1253 -1.24631 2.828 -13.8172 -1.69022 3.39454 -13.4318 -2.09423 3.89639 -13.0898 -2.46853 4.41295 -12.6701 -2.91676 5.00364 -12.1845 -3.27411 5.48375 -11.6386 -3.61354 5.92178 -11.1196 -3.89694 6.17164 -10.6681 0.578742 -1.23859 -14.7082 0.124419 -0.828723 -15.4992 -0.21411 -0.538786 -16.046 0.368416 -0.552549 -14.8232 0.28305 -0.319817 -15.792 0.0791806 -0.173985 -16.1402 0.0809074 0.122881 -14.8946 0.769822 0.738338 -14.6825 -0.225109 0.767316 -14.7608 -0.268204 1.10204 -15.1954 -0.561935 1.49686 -14.5292 -0.619536 1.49731 -14.5004 0.560524 -1.4011 -15.470