<?xml version="1.0"?><VTKFile type="PolyData" version="0.1" byte_order="LittleEndian">
<PolyData>
<Piece NumberOfLines="111" NumberOfPoints="1089">
<PointData Scalars=" PointData">
<DataArray type="Float32" Name="time" NumberOfComponents="1" format="ascii" >
0 0.170305 0.341084 0.512341 0.684077 0.856297 1.029 1.2022 1.37588 1.55006 1.72473 1.89991 2.07559 2.25177 2.42846 2.60566 2.78337 2.96161 3.14036 3.31964 3.49944 3.67977 3.86063 4.04203 4.22397 4.40645 4.58948 4.77305 4.95717 5.14186 5.32709 5.5129 5.69926 5.8862 6.0737 6.26179 6.45045 6.63969 6.82952 7.01995 7.21096 7.40257 7.59479 7.78761 7.98103 8.17507 8.36973 8.56501 8.76091 8.95744 9.1546 9.3524 9.55084 9.74993 9.94966 10.1501 10.3511 10.5528 10.7552 10.9582 11.1619 11.3663 11.5714 11.7772 11.9837 12.1908 12.3987 12.6073 12.8166 13.0266 13.2373 13.4487 13.6609 13.8739 14.0875 14.3019 14.5171 14.733 14.9497 15.1672 15.3854 15.6044 15.8242 16.0448 16.2662 16.4884 16.7114 16.9352 17.1599 17.3853 17.6116 17.8388 18.0668 18.2956 18.5253 18.7558 18.9873 19.2196 19.4528 19.6868 19.9218 20.1577 20.3945 20.6322 20.8708 21 6.58286 7.26921 7.99823 8.77555 9.60805 10.5042 11.4744 12.5322 13.6949 14.9855 16.4359 18.0913 20.0191 21 6.77251 7.45887 8.18788 8.96521 9.79771 10.6938 11.6641 12.7218 13.8845 15.1752 16.6256 18.2809 20.2087 21 6.96276 7.64911 8.37813 9.15545 9.98795 10.8841 11.8543 12.9121 14.0748 15.3654 16.8158 18.4712 20.399 21 7.15359 7.83995 8.56896 9.34629 10.1788 11.0749 12.0451 13.1029 14.2656 15.5563 17.0067 18.662 20.5898 21 7.34503 8.03138 8.76039 9.53772 10.3702 11.2663 12.2366 13.2944 14.457 15.7477 17.1981 18.8534 20.7812 21 7.53706 8.22342 8.95243 9.72975 10.5623 11.4584 12.4286 13.4864 14.6491 15.9397 17.3901 19.0455 20.9733 21 7.7297 8.41605 9.14506 9.92239 10.7549 11.651 12.6213 13.679 14.8417 16.1324 17.5828 19.2381 21 7.92294 8.6093 9.33831 10.1156 10.9481 11.8442 12.8145 13.8723 15.0349 16.3256 17.776 19.4313 21 8.1168 8.80315 9.53217 10.3095 11.142 12.0381 13.0084 14.0661 15.2288 16.5195 17.9699 19.6252 21 8.31127 8.99762 9.72664 10.504 11.3365 12.2326 13.2028 14.2606 15.4233 16.7139 18.1643 19.8197 21 8.50636 9.19272 9.92173 10.6991 11.5316 12.4277 13.3979 14.4557 15.6184 16.909 18.3594 20.0148 21 8.70207 9.38843 10.1174 10.8948 11.7273 12.6234 13.5936 14.6514 15.8141 17.1047 18.5551 20.2105 21 8.89842 9.58477 10.3138 11.0911 11.9236 12.8197 13.79 14.8477 16.0104 17.3011 18.7515 20.4068 21 9.09539 9.78174 10.5108 11.2881 12.1206 13.0167 13.9869 15.0447 16.2074 17.4981 18.9485 20.6038 21 9.293 9.97935 10.7084 11.4857 12.3182 13.2143 14.1846 15.2423 16.405 17.6957 19.1461 20.8014 21 9.49124 10.1776 10.9066 11.6839 12.5164 13.4125 14.3828 15.4406 16.6032 17.8939 19.3443 20.9996 21 9.69014 10.3765 11.1055 11.8828 12.7153 13.6114 14.5817 15.6395 16.8021 18.0928 19.5432 21 9.88968 10.576 11.305 12.0824 12.9149 13.811 14.7812 15.839 17.0017 18.2923 19.7427 21 10.0899 10.7762 11.5052 12.2826 13.1151 14.0112 14.9814 16.0392 17.2019 18.4925 19.9429 21 10.2907 10.9771 11.7061 12.4834 13.3159 14.212 15.1823 16.24 17.4027 18.6934 20.1438 21 10.4922 11.1786 11.9076 12.6849 13.5174 14.4135 15.3838 16.4415 17.6042 18.8949 20.3453 21 10.6944 11.3808 12.1098 12.8871 13.7196 14.6157 15.586 16.6437 17.8064 19.0971 20.5475 21 10.8972 11.5836 12.3126 13.0899 13.9224 14.8185 15.7888 16.8466 18.0092 19.2999 20.7503 21 11.1008 11.7871 12.5161 13.2935 14.126 15.0221 15.9923 17.0501 18.2127 19.5034 20.9538 21 11.305 11.9913 12.7203 13.4976 14.3301 15.2263 16.1965 17.2543 18.4169 19.7076 21 11.5098 12.1962 12.9252 13.7025 14.535 15.4311 16.4014 17.4592 18.6218 19.9125 21 11.7154 12.4018 13.1308 13.9081 14.7406 15.6367 16.6069 17.6647 18.8274 20.1181 21 11.9217 12.608 13.337 14.1143 14.9468 15.843 16.8132 17.871 19.0336 20.3243 21 12.1286 12.815 13.544 14.3213 15.1538 16.0499 17.0202 18.0779 19.2406 20.5313 21 12.3363 13.0226 13.7516 14.529 15.3615 16.2576 17.2278 18.2856 19.4483 20.7389 21 12.5446 13.231 13.96 14.7373 15.5698 16.4659 17.4362 18.494 19.6566 20.9473 21 12.7537 13.4401 14.1691 14.9464 15.7789 16.675 17.6453 18.703 19.8657 21 12.9635 13.6498 14.3789 15.1562 15.9887 16.8848 17.855 18.9128 20.0755 21 13.174 13.8604 14.5894 15.3667 16.1992 17.0953 18.0656 19.1233 20.286 21 13.3852 14.0716 14.8006 15.5779 16.4104 17.3065 18.2768 19.3346 20.4972 21 13.5972 14.2836 15.0126 15.7899 16.6224 17.5185 18.4888 19.5465 20.7092 21 13.8099 14.4963 15.2253 16.0026 16.8351 17.7312 18.7015 19.7592 20.9219 21 14.0234 14.7097 15.4387 16.216 17.0485 17.9447 18.9149 19.9727 21 14.2375 14.9239 15.6529 16.4302 17.2627 18.1588 19.1291 20.1869 21 14.4525 15.1388 15.8679 16.6452 17.4777 18.3738 19.344 20.4018 21 14.6682 15.3545 16.0836 16.8609 17.6934 18.5895 19.5597 20.6175 21 14.8846 15.571 16.3 17.0773 17.9098 18.8059 19.7762 20.834 21 15.1019 15.7882 16.5172 17.2946 18.1271 19.0232 19.9934 21 15.3199 16.0062 16.7352 17.5126 18.3451 19.2412 20.2114 21 15.5387 16.225 16.954 17.7314 18.5639 19.46 20.4302 21 15.7582 16.4446 17.1736 17.9509 18.7834 19.6795 20.6498 21 15.9786 16.6649 17.3939 18.1713 19.0038 19.8999 20.8701 21 16.1997 16.8861 17.6151 18.3924 19.2249 20.121 21 16.4217 17.108 17.837 18.6144 19.4469 20.343 21 16.6444 17.3308 18.0598 18.8371 19.6696 20.5657 21 16.868 17.5544 18.2834 19.0607 19.8932 20.7893 21 17.0924 17.7788 18.5078 19.2851 20.1176 21 17.3176 18.004 18.733 19.5103 20.3428 21 17.5437 18.23 18.959 19.7364 20.5689 21 17.7705 18.4569 19.1859 19.9632 20.7957 21 17.9983 18.6846 19.4136 20.191 21 18.2268 18.9132 19.6422 20.4195 21 18.4563 19.1426 19.8716 20.649 21 18.6866 19.3729 20.1019 20.8793 21 18.9177 19.6041 20.3331 21 19.1498 19.8361 20.5651 21 19.3827 20.0691 20.7981 21 19.6165 20.3029 21 19.8512 20.5376 21 20.0868 20.7732 21 20.3233 21 20.5608 21 20.7991 21 7 7.1703 7.34108 7.51234 7.68408 7.8563 8.029 8.2022 8.37588 8.55006 8.72473 8.89991 9.07559 9.25177 9.42846 9.60566 9.78337 9.96161 10.1404 10.3196 10.4994 10.6798 10.8606 11.042 11.224 11.4065 11.5895 11.773 11.9572 12.1419 12.3271 12.5129 12.6993 12.8862 13.0737 13.2618 13.4504 13.6397 13.8295 14.0199 14.211 14.4026 14.5948 14.7876 14.981 15.1751 15.3697 15.565 15.7609 15.9574 16.1546 16.3524 16.5508 16.7499 16.9497 17.1501 17.3511 17.5528 17.7552 17.9582 18.1619 18.3663 18.5714 18.7772 18.9837 19.1908 19.3987 19.6073 19.8166 20.0266 20.2373 20.4487 20.6609 20.8739 21 13.5829 14.2692 14.9982 15.7756 16.6081 17.5042 18.4744 19.5322 20.6949 21 13.7725 14.4589 15.1879 15.9652 16.7977 17.6938 18.6641 19.7218 20.8845 21 13.9628 14.6491 15.3781 16.1555 16.988 17.8841 18.8543 19.9121 21 14.1536 14.8399 15.569 16.3463 17.1788 18.0749 19.0451 20.1029 21 14.345 15.0314 15.7604 16.5377 17.3702 18.2663 19.2366 20.2944 21 14.5371 15.2234 15.9524 16.7298 17.5623 18.4584 19.4286 20.4864 21 14.7297 15.4161 16.1451 16.9224 17.7549 18.651 19.6213 20.679 21 14.9229 15.6093 16.3383 17.1156 17.9481 18.8442 19.8145 20.8723 21 15.1168 15.8032 16.5322 17.3095 18.142 19.0381 20.0084 21 15.3113 15.9976 16.7266 17.504 18.3365 19.2326 20.2028 21 15.5064 16.1927 16.9217 17.6991 18.5316 19.4277 20.3979 21 15.7021 16.3884 17.1174 17.8948 18.7273 19.6234 20.5936 21 15.8984 16.5848 17.3138 18.0911 18.9236 19.8197 20.79 21 16.0954 16.7817 17.5108 18.2881 19.1206 20.0167 20.9869 21 16.293 16.9794 17.7084 18.4857 19.3182 20.2143 21 16.4912 17.1776 17.9066 18.6839 19.5164 20.4125 21 16.6901 17.3765 18.1055 18.8828 19.7153 20.6114 21 16.8897 17.576 18.305 19.0824 19.9149 20.811 21 17.0899 17.7762 18.5052 19.2826 20.1151 21 17.2907 17.9771 18.7061 19.4834 20.3159 21 17.4922 18.1786 18.9076 19.6849 20.5174 21 17.6944 18.3808 19.1098 19.8871 20.7196 21 17.8972 18.5836 19.3126 20.0899 20.9224 21 18.1008 18.7871 19.5161 20.2935 21 18.305 18.9913 19.7203 20.4976 21 18.5098 19.1962 19.9252 20.7025 21 18.7154 19.4018 20.1308 20.9081 21 18.9217 19.608 20.337 21 19.1286 19.815 20.544 21 19.3363 20.0226 20.7516 21 19.5446 20.231 20.96 21 19.7537 20.4401 21 19.9635 20.6498 21 20.174 20.8604 21 20.3852 21 20.5972 21 20.8099 21 14 14.1703 14.3411 14.5123 14.6841 14.8563 15.029 15.2022 15.3759 15.5501 15.7247 15.8999 16.0756 16.2518 16.4285 16.6057 16.7834 16.9616 17.1404 17.3196 17.4994 17.6798 17.8606 18.042 18.224 18.4065 18.5895 18.773 18.9572 19.1419 19.3271 19.5129 19.6993 19.8862 20.0737 20.2618 20.4504 20.6397 20.8295 21 20.5829 21 20.7725 21 20.9628 21 
</DataArray>

</PointData>
<CellData Scalars=" CellData">
<DataArray type="Float32" Name="radius" NumberOfComponents="1" format="ascii" >
0.13 0.05 0.05 0.05 0.05 0.05 0.05 0.05 0.05 0.05 0.05 0.05 0.05 0.05 0.05 0.05 0.05 0.05 0.05 0.05 0.05 0.05 0.05 0.05 0.05 0.05 0.05 0.05 0.05 0.05 0.05 0.05 0.05 0.05 0.05 0.05 0.05 0.05 0.05 0.05 0.05 0.05 0.05 0.05 0.05 0.05 0.05 0.05 0.05 0.05 0.05 0.05 0.05 0.05 0.05 0.05 0.05 0.05 0.05 0.05 0.05 0.05 0.05 0.05 0.05 0.05 0.05 0.05 0.05 0.13 0.05 0.05 0.05 0.05 0.05 0.05 0.05 0.05 0.05 0.05 0.05 0.05 0.05 0.05 0.05 0.05 0.05 0.05 0.05 0.05 0.05 0.05 0.05 0.05 0.05 0.05 0.05 0.05 0.05 0.05 0.05 0.05 0.05 0.05 0.05 0.05 0.05 0.13 0.05 0.05 0.05 
</DataArray>
<DataArray type="Float32" Name="subType" NumberOfComponents="1" format="ascii" >
1 2 2 2 2 2 2 2 2 2 2 2 2 2 2 2 2 2 2 2 2 2 2 2 2 2 2 2 2 2 2 2 2 2 2 2 2 2 2 2 2 2 2 2 2 2 2 2 2 2 2 2 2 2 2 2 2 2 2 2 2 2 2 2 2 2 2 2 2 4 2 2 2 2 2 2 2 2 2 2 2 2 2 2 2 2 2 2 2 2 2 2 2 2 2 2 2 2 2 2 2 2 2 2 2 2 2 4 2 2 2 
</DataArray>
<DataArray type="Float32" Name="creationTime" NumberOfComponents="1" format="ascii" >
0 6.58286 6.77251 6.96276 7.15359 7.34503 7.53706 7.7297 7.92294 8.1168 8.31127 8.50636 8.70207 8.89842 9.09539 9.293 9.49124 9.69014 9.88968 10.0899 10.2907 10.4922 10.6944 10.8972 11.1008 11.305 11.5098 11.7154 11.9217 12.1286 12.3363 12.5446 12.7537 12.9635 13.174 13.3852 13.5972 13.8099 14.0234 14.2375 14.4525 14.6682 14.8846 15.1019 15.3199 15.5387 15.7582 15.9786 16.1997 16.4217 16.6444 16.868 17.0924 17.3176 17.5437 17.7705 17.9983 18.2268 18.4563 18.6866 18.9177 19.1498 19.3827 19.6165 19.8512 20.0868 20.3233 20.5608 20.7991 7 13.5829 13.7725 13.9628 14.1536 14.345 14.5371 14.7297 14.9229 15.1168 15.3113 15.5064 15.7021 15.8984 16.0954 16.293 16.4912 16.6901 16.8897 17.0899 17.2907 17.4922 17.6944 17.8972 18.1008 18.305 18.5098 18.7154 18.9217 19.1286 19.3363 19.5446 19.7537 19.9635 20.174 20.3852 20.5972 20.8099 14 20.5829 20.7725 20.9628 
</DataArray>

</CellData>
<Points>
<DataArray type="Float32" Name="Coordinates" NumberOfComponents="3" format="ascii" >
0 0 -1.2 0.3177 0.377768 -1.27974 0.651278 0.733186 -1.39111 1.01041 1.06548 -1.4941 1.36077 1.37614 -1.66941 1.70729 1.68964 -1.8473 2.05688 1.97273 -2.06558 2.40539 2.25063 -2.29211 2.75352 2.52766 -2.52028 3.08042 2.77522 -2.80637 3.42006 3.00506 -3.0924 3.7877 3.23437 -3.34193 4.14015 3.49282 -3.58479 4.5042 3.74904 -3.81242 4.86367 4.0162 -4.0347 5.2237 4.27806 -4.26231 5.58151 4.52152 -4.51271 5.93309 4.77702 -4.75991 6.27919 5.02206 -5.02482 6.62064 5.25768 -5.30391 6.9456 5.50386 -5.59338 7.27004 5.7469 -5.88608 7.58883 5.98827 -6.18627 7.90696 6.23489 -6.48287 8.24404 6.43882 -6.79075 8.59076 6.60989 -7.1078 8.93989 6.78901 -7.41768 9.2732 6.94162 -7.7577 9.6049 7.06957 -8.10927 9.93442 7.18885 -8.4659 10.2572 7.29879 -8.8316 10.5211 7.40869 -9.24181 10.8201 7.47768 -9.63657 11.1127 7.55627 -10.0343 11.3633 7.66051 -10.4543 11.6454 7.77456 -10.851 11.9302 7.88418 -11.247 12.2075 7.99711 -11.6475 12.4931 8.12738 -12.0367 12.8074 8.27469 -12.3966 13.0941 8.42929 -12.7759 13.3732 8.57895 -13.1628 13.6528 8.70575 -13.5575 13.9519 8.82593 -13.9397 14.244 8.98737 -14.312 14.5368 9.15447 -14.6813 14.8247 9.33737 -15.0469 15.0782 9.56528 -15.4126 15.2716 9.79237 -15.8139 15.4695 10.0126 -16.2168 15.6501 10.225 -16.6319 15.8277 10.4356 -17.0492 16.0143 10.6227 -17.4736 16.1769 10.803 -17.9107 16.3338 10.9643 -18.3572 16.4957 11.0729 -18.8176 16.6541 11.1754 -19.2807 16.7926 11.2486 -19.7555 16.89 11.3503 -20.2353 16.9922 11.4461 -20.7152 17.0962 11.5431 -21.1946 17.2131 11.5869 -21.6787 17.3279 11.6283 -22.1636 17.452 11.6895 -22.6441 17.5594 11.7633 -23.1268 17.6435 11.8328 -23.6148 17.7039 11.9162 -24.1041 17.7327 12.0037 -24.5955 17.7637 12.0914 -25.0868 17.7943 12.1792 -25.578 17.8284 12.2681 -26.0689 17.8601 12.3547 -26.5603 17.8675 12.5119 -27.0349 17.8927 12.6729 -27.5076 17.9294 12.7853 -27.9934 17.9469 12.9102 -28.4773 17.9756 12.9995 -28.9684 18.026 13.0636 -29.4617 18.0429 13.1525 -29.9534 18.0711 13.2328 -30.4461 18.1258 13.2839 -30.9405 18.184 13.3419 -31.4337 18.2263 13.3849 -31.9301 18.2726 13.4315 -32.4257 18.306 13.4866 -32.9216 18.3752 13.5254 -33.4152 18.4358 13.6033 -33.9054 18.4864 13.6861 -34.3959 18.5172 13.7503 -34.8908 18.5479 13.8088 -35.3864 18.576 13.8625 -35.8827 18.601 13.8971 -36.3809 18.6502 13.9296 -36.8774 18.7154 13.9783 -37.3707 18.785 14.0108 -37.8648 18.8019 14.023 -38.3644 18.814 14.0473 -38.8636 18.84 14.0317 -39.3627 18.8503 14.0225 -39.8625 18.8548 14.0222 -40.3625 18.8386 14.0031 -40.8619 18.8597 13.991 -41.3613 18.8142 13.9382 -41.8564 18.7647 13.9023 -42.3526 18.7504 13.8799 -42.8519 18.7545 13.8594 -43.121 0.3177 0.377768 -1.27974 0.667298 0.126483 -1.0255 1.05532 -0.101452 -0.807592 1.42067 -0.369787 -0.596595 1.76812 -0.64767 -0.368441 2.13855 -0.887153 -0.13301 2.49784 -1.11846 0.126626 2.84238 -1.37784 0.37964 3.18257 -1.64419 0.631293 3.54916 -1.88389 0.872447 3.8563 -2.15104 1.16278 4.14186 -2.42813 1.46556 4.45746 -2.69161 1.75013 4.59658 -2.81152 1.87935 0.651278 0.733186 -1.39111 1.00804 0.482794 -1.63611 1.36494 0.232222 -1.88072 1.68131 -0.03757 -2.15844 2.00448 -0.304673 -2.43086 2.34211 -0.591255 -2.66297 2.65737 -0.898844 -2.89962 2.97284 -1.19714 -3.14761 3.30986 -1.45221 -3.41474 3.65446 -1.69167 -3.68661 3.99698 -1.93314 -3.95931 4.34588 -2.17104 -4.22702 4.69485 -2.40896 -4.49464 4.82277 -2.49395 -4.5934 1.01041 1.06548 -1.4941 0.617867 1.31886 -1.67217 0.231122 1.56752 -1.86862 -0.150646 1.82179 -2.06763 -0.515932 2.08282 -2.28769 -0.873512 2.34994 -2.51304 -1.23102 2.61816 -2.73719 -1.58397 2.88286 -2.97249 -1.94668 3.14611 -3.19416 -2.31782 3.40662 -3.40485 -2.68381 3.66954 -3.62147 -3.0288 3.96492 -3.83059 -3.38077 4.24156 -4.05328 -3.47644 4.32145 -4.11662 1.36077 1.37614 -1.66941 1.29774 1.26767 -2.15342 1.22781 1.16782 -2.63833 1.12319 1.0314 -3.10784 1.01278 0.929063 -3.58464 0.911557 0.837069 -4.06557 0.805843 0.736256 -4.54376 0.703967 0.648786 -5.02539 0.614088 0.555732 -5.50836 0.51428 0.418105 -5.97857 0.436748 0.285854 -6.45449 0.415634 0.137567 -6.93153 0.486642 0.00199541 -7.40753 0.500196 -0.0242439 -7.49908 1.70729 1.68964 -1.8473 1.81427 1.3321 -2.18005 1.93903 0.986843 -2.51951 2.05435 0.641167 -2.86187 2.17804 0.268601 -3.17154 2.30113 -0.104724 -3.48053 2.41568 -0.48902 -3.77919 2.51086 -0.876509 -4.08051 2.63203 -1.2651 -4.37088 2.74033 -1.66354 -4.65287 2.85025 -2.05852 -4.93906 2.98239 -2.42255 -5.25532 3.11615 -2.79014 -5.56674 3.12893 -2.82832 -5.59921 2.05688 1.97273 -2.06558 1.96279 2.26473 -1.67077 1.85111 2.54537 -1.27231 1.73649 2.8235 -0.872929 1.62538 3.13719 -0.499757 1.50884 3.46172 -0.137684 1.41548 3.78598 0.231291 1.32623 4.1089 0.602441 1.25221 4.41533 0.990541 1.14667 4.74207 1.354 1.04233 5.06895 1.71768 0.913052 5.39882 2.07049 0.79104 5.72484 2.42941 0.789497 5.729 2.43398 2.40539 2.25063 -2.29211 2.08336 2.32916 -2.66646 1.76979 2.44067 -3.0396 1.45586 2.53896 -3.41614 1.12182 2.61196 -3.78096 0.795583 2.69126 -4.15147 0.464006 2.76124 -4.51911 0.138336 2.86064 -4.88525 -0.186612 2.9486 -5.25495 -0.489405 3.0496 -5.6398 -0.793128 3.15052 -6.02395 -1.09261 3.23421 -6.41549 -1.34403 3.27853 -6.7983 2.75352 2.52766 -2.52028 2.61735 2.97099 -2.33342 2.48575 3.42345 -2.1662 2.32913 3.86401 -1.98905 2.15407 4.30548 -1.83267 1.94857 4.72039 -1.64394 1.76495 5.14329 -1.45046 1.60465 5.59588 -1.3109 1.41129 6.02574 -1.14409 1.21742 6.4566 -0.980454 1.02375 6.88471 -0.809553 0.839722 7.29871 -0.598025 0.689194 7.64262 -0.425966 3.08042 2.77522 -2.80637 2.80029 3.07322 -3.09399 2.46884 3.35655 -3.33867 2.15638 3.6876 -3.54549 1.87859 4.04279 -3.76151 1.59441 4.35595 -4.0283 1.31189 4.6769 -4.28748 1.0372 5.00445 -4.54682 0.755013 5.33353 -4.79597 0.468719 5.64155 -5.06646 0.188028 5.9512 -5.34091 -0.082801 6.27072 -5.61397 -0.283236 6.50408 -5.81018 3.42006 3.00506 -3.0924 3.34052 2.65108 -3.43646 3.25658 2.29633 -3.77867 3.19194 1.91863 -4.09986 3.14147 1.54284 -4.42579 3.08937 1.15696 -4.73945 3.09197 0.7673 -5.05275 3.0896 0.37492 -5.36265 3.06997 -0.0136281 -5.67672 3.06253 -0.379198 -6.01776 3.05773 -0.754187 -6.34845 3.05177 -1.10786 -6.70184 3.05083 -1.33442 -6.92186 3.7877 3.23437 -3.34193 3.88773 2.86802 -3.66717 3.9716 2.51101 -4.00704 4.05046 2.14118 -4.33416 4.12965 1.76455 -4.65335 4.22089 1.40101 -4.98427 4.31374 1.03826 -5.31563 4.39228 0.680947 -5.65644 4.53581 0.366908 -6.01807 4.68251 0.0546714 -6.38 4.80078 -0.255362 -6.75401 4.86248 -0.615553 -7.09527 4.89309 -0.808577 -7.2754 4.14015 3.49282 -3.58479 3.77758 3.5264 -3.92745 3.37833 3.5126 -4.22812 2.9998 3.49267 -4.55419 2.63569 3.47499 -4.89641 2.27233 3.44423 -5.23849 1.92024 3.37442 -5.58657 1.54568 3.3188 -5.91308 1.14135 3.30868 -6.20706 0.709128 3.29629 -6.45811 0.295277 3.28592 -6.7385 -0.136545 3.27905 -6.99046 -0.321286 3.27755 -7.09994 4.5042 3.74904 -3.81242 4.78877 3.59887 -3.4297 5.07985 3.45941 -3.04784 5.36922 3.32115 -2.66424 5.66171 3.18063 -2.28384 6.01873 3.04253 -1.96219 6.36168 2.87657 -1.63838 6.68861 2.68954 -1.30954 7.00716 2.48411 -0.983472 7.31597 2.23682 -0.677719 7.64193 2.02197 -0.36532 7.96935 1.80431 -0.0564234 8.06962 1.72665 0.0454757 4.86367 4.0162 -4.0347 4.66306 4.45565 -3.90568 4.46253 4.8975 -3.78504 4.23297 5.32473 -3.66348 4.0062 5.75394 -3.54367 3.7972 6.1875 -3.40821 3.59715 6.62852 -3.2838 3.41605 7.07609 -3.15389 3.23494 7.52627 -3.03331 3.03638 7.96864 -2.91132 2.83432 8.40828 -2.78527 2.61526 8.8364 -2.64841 2.57091 8.93179 -2.61774 5.2237 4.27806 -4.26231 5.10327 4.76321 -4.25118 4.96321 5.24287 -4.26898 4.8018 5.71597 -4.27979 4.62843 6.18495 -4.27984 4.42352 6.64076 -4.26381 4.25101 7.10802 -4.22013 4.07627 7.57339 -4.1663 3.93551 8.04349 -4.07046 3.77805 8.51522 -4.01868 3.61986 8.98665 -3.9664 3.45056 9.45251 -3.90078 3.43167 9.50408 -3.89362 5.58151 4.52152 -4.51271 5.43004 4.55303 -4.98817 5.30467 4.54906 -5.47218 5.18979 4.53084 -5.95847 5.07732 4.4954 -6.44436 4.95991 4.47057 -6.92975 4.82896 4.4735 -7.41228 4.7 4.48164 -7.8953 4.55569 4.46158 -8.3736 4.4146 4.44391 -8.85295 4.28042 4.43547 -9.33454 4.14048 4.4197 -9.8143 4.14045 4.41969 -9.8144 5.93309 4.77702 -4.75991 5.87755 5.07245 -4.36037 5.82439 5.30652 -3.92175 5.77091 5.53999 -3.48285 5.70567 5.71848 -3.02038 5.60238 5.89603 -2.56452 5.49494 6.06091 -2.10488 5.35783 6.2562 -1.66549 5.24525 6.42511 -1.20855 5.12438 6.58954 -0.752092 4.96279 6.7622 -0.311547 4.85274 6.90891 0.0924623 6.27919 5.02206 -5.02482 6.03272 4.85388 -5.42603 5.77219 4.67692 -5.81437 5.52682 4.5012 -6.21301 5.28053 4.3248 -6.61078 5.04381 4.13342 -7.00745 4.81487 3.95177 -7.41314 4.58719 3.77117 -7.82001 4.30239 3.60348 -8.19521 4.02369 3.43895 -8.57633 3.75003 3.27486 -8.96127 3.57326 3.14408 -9.27867 6.62064 5.25768 -5.30391 6.98106 5.15594 -4.97263 7.29806 5.05396 -4.59965 7.65067 4.94157 -4.26344 8.00094 4.82698 -3.92554 8.36307 4.72214 -3.59711 8.74647 4.62849 -3.29013 9.14354 4.51615 -3.00779 9.53732 4.40162 -2.72174 9.93887 4.29533 -2.44343 10.3479 4.19741 -2.17298 10.6148 4.13452 -1.99418 6.9456 5.50386 -5.59338 6.80819 5.33893 -6.04495 6.61566 5.24251 -6.49621 6.42077 5.12852 -6.94233 6.22501 5.01503 -7.3882 6.07559 4.92666 -7.85709 5.90035 4.86282 -8.32101 5.62567 4.7863 -8.73173 5.36993 4.71239 -9.15498 5.11166 4.64399 -9.57761 4.87645 4.53711 -10.0057 4.75115 4.47547 -10.2338 7.27004 5.7469 -5.88608 7.69093 5.5512 -5.70018 8.11062 5.34561 -5.52242 8.53623 5.14722 -5.3507 8.96905 4.95319 -5.19251 9.41571 4.78383 -5.04482 9.84837 4.612 -4.8624 10.2795 4.42808 -4.68832 10.6976 4.22923 -4.49951 11.0876 4 -4.28661 11.4683 3.75128 -4.0787 11.6336 3.65513 -4.00143 7.58883 5.98827 -6.18627 7.4118 5.72028 -6.56947 7.26076 5.4619 -6.97 7.08772 5.19666 -7.35693 6.9147 4.93143 -7.74386 6.74171 4.66753 -8.13171 6.57961 4.3757 -8.50394 6.41462 4.09226 -8.88135 6.31409 3.76155 -9.24264 6.19104 3.4628 -9.62423 6.06336 3.15012 -9.99291 6.027 3.06245 -10.1009 7.90696 6.23489 -6.48287 8.36604 6.0483 -6.41631 8.82878 5.86048 -6.39192 9.29223 5.67588 -6.3582 9.76176 5.50483 -6.34143 10.2161 5.29772 -6.31548 10.6708 5.09118 -6.2905 11.1303 4.90388 -6.22896 11.5948 4.72502 -6.18222 12.0752 4.58876 -6.15564 12.5369 4.40406 -6.10404 12.6111 4.37523 -6.09572 8.24404 6.43882 -6.79075 8.27063 5.99814 -7.02547 8.32473 5.56708 -7.27299 8.37643 5.13759 -7.52371 8.43114 4.70982 -7.77674 8.38548 4.29987 -8.05932 8.339 3.89312 -8.34636 8.30436 3.48247 -8.62951 8.27071 3.07597 -8.91869 8.22175 2.66227 -9.19519 8.18979 2.24071 -9.46215 8.18873 2.2281 -9.47006 8.59076 6.60989 -7.1078 8.35945 6.38155 -7.48774 8.13725 6.14024 -7.8651 7.91961 5.90693 -8.25006 7.67213 5.66322 -8.60974 7.45454 5.40013 -8.97503 7.22714 5.13716 -9.33437 7.00225 4.87763 -9.69779 6.78333 4.63205 -10.0743 6.559 4.38872 -10.4491 6.3627 4.17621 -10.7918 8.93989 6.78901 -7.41768 9.30569 6.54394 -7.18075 9.67642 6.31022 -6.94006 9.97782 6.05631 -6.63234 10.245 5.73861 -6.35359 10.5574 5.4313 -6.11287 10.8696 5.12376 -5.87217 11.1787 4.81844 -5.62466 11.5265 4.58473 -5.35195 11.8571 4.35068 -5.05877 12.1079 4.161 -4.84435 9.2732 6.94162 -7.7577 9.08985 7.3957 -7.65674 8.92886 7.84871 -7.51941 8.74138 8.30557 -7.4411 8.58435 8.76661 -7.32803 8.47577 9.24756 -7.24496 8.34694 9.72788 -7.19308 8.21103 10.2026 -7.11434 8.10805 10.6914 -7.09402 8.00072 11.1795 -7.07871 7.90128 11.4743 -7.09229 9.6049 7.06957 -8.10927 9.88713 7.1299 -7.70098 10.178 7.21269 -7.30281 10.4575 7.30625 -6.89894 10.7306 7.3956 -6.48974 11.0306 7.47838 -6.09836 11.3107 7.57773 -5.6963 11.5841 7.67008 -5.28798 11.872 7.74772 -4.88663 12.1545 7.83934 -4.4844 12.2851 7.8848 -4.28748 9.93442 7.18885 -8.4659 9.82393 7.64448 -8.29214 9.7649 8.10295 -8.10156 9.69438 8.55721 -7.90489 9.64457 9.03414 -7.7633 9.60792 9.50841 -7.60925 9.57167 9.97521 -7.43379 9.48932 10.4293 -7.2413 9.42817 10.8636 -7.00136 9.35124 11.3085 -6.78648 9.32567 11.4569 -6.71101 10.2572 7.29879 -8.8316 10.1999 7.79047 -8.9021 10.1396 8.28246 -8.96773 10.0914 8.77357 -9.04835 9.99773 9.25491 -9.14592 9.87173 9.73149 -9.22961 9.7518 10.2119 -9.29934 9.65225 10.6968 -9.36936 9.5577 11.1763 -9.47514 9.43124 11.6537 -9.55307 9.40837 11.7444 -9.56695 10.5211 7.40869 -9.24181 10.1485 7.26377 -9.5421 9.77065 7.11776 -9.83519 9.39602 7.03288 -10.1553 9.00355 6.9336 -10.4487 8.61204 6.83502 -10.7437 8.21722 6.72864 -11.0314 7.8283 6.61792 -11.3255 7.41566 6.56129 -11.6021 7.01057 6.45592 -11.8756 6.99496 6.45204 -11.8862 10.8201 7.47768 -9.63657 11.1977 7.7162 -9.41174 11.5797 7.95059 -9.19009 11.9472 8.20931 -8.97106 12.3149 8.46285 -8.7463 12.682 8.72355 -8.52874 13.0519 8.97657 -8.30707 13.406 9.2491 -8.08274 13.7619 9.5309 -7.87313 14.0671 9.78496 -7.6784 11.1127 7.55627 -10.0343 10.8874 7.23273 -10.3418 10.6715 6.91533 -10.6622 10.4268 6.611 -10.9744 10.1419 6.34352 -11.2863 9.8671 6.06019 -11.5933 9.60012 5.77328 -11.9038 9.35361 5.47782 -12.223 9.07955 5.22186 -12.5537 8.89274 5.01656 -12.7887 11.3633 7.66051 -10.4543 11.6641 7.26742 -10.3836 11.9649 6.87417 -10.3137 12.2518 6.4711 -10.2416 12.5463 6.07517 -10.1609 12.8535 5.68272 -10.1209 13.1744 5.30095 -10.0846 13.4917 4.91461 -10.0768 13.8268 4.54476 -10.1069 14.0147 4.3333 -10.1232 11.6454 7.77456 -10.851 12.0564 7.61293 -10.6166 12.4663 7.45152 -10.3801 12.8794 7.30675 -10.1383 13.2665 7.15366 -9.86143 13.6441 6.97784 -9.58479 14.0214 6.80345 -9.30682 14.4004 6.61381 -9.04161 14.7829 6.38467 -8.81531 14.9366 6.29144 -8.72471 11.9302 7.88418 -11.247 11.728 8.20173 -11.5761 11.5297 8.52828 -11.8986 11.3287 8.85236 -12.222 11.1575 9.20132 -12.5365 10.9547 9.51328 -12.8705 10.7516 9.84097 -13.1889 10.5504 10.1584 -13.5186 10.3507 10.4908 -13.8343 10.3063 10.569 -13.9099 12.2075 7.99711 -11.6475 12.3792 8.38158 -11.3778 12.5407 8.75348 -11.0853 12.7065 9.13176 -10.8035 12.8748 9.50945 -10.5223 13.0685 9.88033 -10.2486 13.29 10.2497 -9.99468 13.5113 10.6184 -9.73955 13.7164 10.9815 -9.46368 13.7295 11.0049 -9.44647 12.4931 8.12738 -12.0367 12.9118 8.16127 -11.7655 13.3614 8.19108 -11.5489 13.785 8.28329 -11.2998 14.2272 8.36826 -11.0825 14.6644 8.44138 -10.851 15.0944 8.49966 -10.6027 15.5246 8.55848 -10.3547 15.9138 8.59018 -10.1427 12.8074 8.27469 -12.3966 12.6211 7.99169 -12.7643 12.4183 7.70805 -13.1227 12.2168 7.44605 -13.4978 12.0469 7.21351 -13.9066 11.8245 6.97586 -14.2861 11.604 6.73938 -14.6675 11.3868 6.50206 -15.0502 11.2737 6.30219 -15.3208 13.0941 8.42929 -12.7759 13.2311 7.9925 -12.977 13.3653 7.54539 -13.1562 13.4862 7.09544 -13.3376 13.5982 6.64316 -13.519 13.7263 6.20521 -13.7234 13.8252 5.76548 -13.9399 13.9207 5.32155 -14.1492 13.9777 5.08577 -14.2519 13.3732 8.57895 -13.1628 12.9538 8.46244 -13.4089 12.5221 8.35977 -13.6393 12.0653 8.31167 -13.8368 11.6216 8.25617 -14.0605 11.2019 8.16313 -14.3159 10.7922 8.0453 -14.5772 10.3887 7.93282 -14.8502 10.2436 7.89879 -14.932 13.6528 8.70575 -13.5575 13.5928 8.27556 -13.8051 13.5394 7.8632 -14.0828 13.482 7.45691 -14.3685 13.395 7.06816 -14.6707 13.3062 6.67524 -14.9669 13.233 6.28039 -15.2648 13.159 5.89531 -15.575 13.1478 5.83883 -15.6222 13.9519 8.82593 -13.9397 14.2291 9.1399 -13.6666 14.5071 9.44834 -13.388 14.7881 9.74291 -13.0978 15.0743 10.0491 -12.8251 15.3498 10.3498 -12.5358 15.6551 10.6005 -12.2293 15.9456 10.8403 -11.9369 14.244 8.98737 -14.312 13.8097 9.09213 -14.5366 13.3808 9.19914 -14.7703 12.9507 9.31636 -14.9967 12.5113 9.43017 -15.2064 12.0715 9.54287 -15.4159 11.6358 9.65154 -15.6358 11.3048 9.73773 -15.7943 14.5368 9.15447 -14.6813 14.5181 8.76197 -14.9905 14.5087 8.37095 -15.302 14.4992 7.98054 -15.6142 14.4973 7.59212 -15.929 14.4791 7.19057 -16.2264 14.4925 6.77803 -16.5086 14.4986 6.55514 -16.6694 14.8247 9.33737 -15.0469 14.9964 9.73865 -14.803 15.1292 10.1706 -14.589 15.3081 10.5906 -14.3851 15.4788 11.0132 -14.1793 15.6689 11.4156 -13.9516 15.8593 11.8177 -13.7234 15.9284 11.9519 -13.6438 15.0782 9.56528 -15.4126 15.5596 9.57154 -15.2777 16.0455 9.59092 -15.1614 16.5305 9.64125 -15.0508 17.007 9.67277 -14.9026 17.4785 9.75767 -14.7594 17.9621 9.83111 -14.6559 18.0235 9.84085 -14.6413 15.2716 9.79237 -15.8139 15.7018 9.56991 -15.6897 16.1224 9.31643 -15.5957 16.5658 9.10919 -15.4936 17.0095 8.89554 -15.4072 17.4507 8.67321 -15.3299 17.8374 8.45391 -15.2344 15.4695 10.0126 -16.2168 15.8144 9.657 -16.2843 16.1578 9.29908 -16.3476 16.4782 8.92138 -16.4159 16.7892 8.53096 -16.4452 17.116 8.15393 -16.4769 17.359 7.91238 -16.4954 15.6501 10.225 -16.6319 15.2133 10.4682 -16.6235 14.7688 10.691 -16.5711 14.3366 10.9425 -16.5655 13.9147 11.2097 -16.5883 13.4848 11.465 -16.5932 13.2894 11.5842 -16.59 15.8277 10.4356 -17.0492 16.2331 10.1452 -17.0858 16.6427 9.86085 -17.1234 17.0575 9.58419 -17.1606 17.4658 9.29604 -17.1753 17.8662 8.99862 -17.2108 17.9599 8.93797 -17.2214 16.0143 10.6227 -17.4736 16.3038 10.9057 -17.1802 16.619 11.1841 -16.9097 16.9589 11.4454 -16.6524 17.2988 11.6737 -16.3655 17.6331 11.8992 -16.0825 16.1769 10.803 -17.9107 15.7644 10.7938 -18.1931 15.3504 10.7639 -18.4718 14.9361 10.7351 -18.7503 14.5219 10.7064 -19.0288 14.2202 10.6883 -19.2429 16.3338 10.9643 -18.3572 16.1731 10.6244 -18.6868 16.0066 10.2782 -19.0068 15.8582 9.92533 -19.3285 15.7188 9.57224 -19.6539 15.6576 9.39142 -19.8081 16.4957 11.0729 -18.8176 16.9517 11.277 -18.7964 17.4012 11.4909 -18.7503 17.8356 11.7259 -18.6722 18.2877 11.9293 -18.6066 18.3954 11.9746 -18.5961 16.6541 11.1754 -19.2807 16.885 11.5683 -19.075 17.1224 11.9551 -18.8651 17.3567 12.3668 -18.7051 17.5803 12.7558 -18.5175 16.7926 11.2486 -19.7555 16.5921 11.6981 -19.6675 16.3912 12.1475 -19.5797 16.191 12.5992 -19.5028 16.0528 12.9188 -19.449 16.89 11.3503 -20.2353 17.3707 11.3379 -20.3722 17.856 11.3486 -20.4922 18.3379 11.3851 -20.6204 18.5461 11.408 -20.6695 16.9922 11.4461 -20.7152 16.6122 11.2543 -20.9776 16.2284 11.0689 -21.2388 15.874 10.8568 -21.5206 15.8227 10.8255 -21.5651 17.0962 11.5431 -21.1946 17.5064 11.8201 -21.1235 17.9186 12.0941 -21.0529 18.2764 12.3305 -21.0107 17.2131 11.5869 -21.6787 17.1706 12.0833 -21.6358 17.1701 12.5819 -21.5994 17.1579 12.8629 -21.5617 17.3279 11.6283 -22.1636 17.0745 12.0555 -22.1066 16.8143 12.4751 -22.0276 16.7479 12.5886 -22.0069 17.452 11.6895 -22.6441 17.7357 11.2783 -22.6657 18.0088 10.8851 -22.6719 17.5594 11.7633 -23.1268 17.4904 11.3064 -23.3177 17.4597 11.0164 -23.4513 17.6435 11.8328 -23.6148 17.4479 11.4776 -23.9072 17.392 11.3647 -24.0041 17.7039 11.9162 -24.1041 17.2304 12.0506 -24.0743 17.7327 12.0037 -24.5955 17.571 12.2818 -24.6286 17.7637 12.0914 -25.0868 17.6398 12.0085 -25.0771 0 0 -1.2 -0.480901 -0.0940253 -1.29946 -0.956957 -0.184515 -1.42268 -1.42752 -0.249282 -1.57881 -1.90167 -0.307766 -1.72633 -2.38643 -0.354745 -1.83946 -2.86814 -0.370662 -1.97253 -3.3445 -0.380847 -2.12409 -3.82048 -0.388671 -2.277 -4.30036 -0.366193 -2.41561 -4.7851 -0.355021 -2.53767 -5.27286 -0.343762 -2.64709 -5.74966 -0.313449 -2.79453 -6.21876 -0.247803 -2.95463 -6.68274 -0.200906 -3.13497 -7.14298 -0.140198 -3.3207 -7.60609 -0.0720956 -3.49645 -8.07426 -0.00507454 -3.65873 -8.5386 0.109122 -3.80481 -9.01033 0.220125 -3.92791 -9.4748 0.379936 -4.0213 -9.9395 0.540254 -4.11273 -10.4035 0.699129 -4.20993 -10.8562 0.861675 -4.34659 -11.3035 1.03225 -4.49074 -11.7567 1.16228 -4.65733 -12.1862 1.3273 -4.85303 -12.6025 1.50977 -5.06132 -12.9889 1.70196 -5.31379 -13.3709 1.88812 -5.57735 -13.7534 2.07692 -5.83818 -14.1352 2.26715 -6.09901 -14.5089 2.45131 -6.37546 -14.875 2.63319 -6.66338 -15.2237 2.81574 -6.97172 -15.5706 2.99484 -7.2841 -15.9618 3.16948 -7.54188 -16.3567 3.31747 -7.81051 -16.7496 3.43381 -8.09707 -17.1382 3.55948 -8.38554 -17.5126 3.6824 -8.69327 -17.8814 3.76944 -9.0194 -18.2467 3.8578 -9.34925 -18.6008 3.95221 -9.68942 -18.9498 4.05231 -10.0332 -19.3163 4.09001 -10.3712 -19.6798 4.12743 -10.7125 -20.0494 4.18589 -11.044 -20.4187 4.2458 -11.3757 -20.7777 4.2634 -11