<?xml version="1.0"?><VTKFile type="PolyData" version="0.1" byte_order="LittleEndian">
<PolyData>
<Piece NumberOfLines="9" NumberOfPoints="53">
<PointData Scalars=" PointData">
<DataArray type="Float32" Name="time" NumberOfComponents="1" format="ascii" >
0 2.94076 3.47928 4.02066 4.56495 5.11218 5.66237 6.21556 6.77179 7.33108 7.89348 8.459 9.0277 9.59961 10.1748 10.7532 11.3349 11.92 12.5085 13.1004 13.6958 14.2948 14.8972 15 10.3993 13.4301 15 10.979 11.5031 12.0321 12.566 13.1049 13.6489 14.1982 14.7527 15 11.5621 14.6023 15 12.1485 15 12.7383 13.2624 13.7914 14.3253 14.8642 15 13.3316 15 13.9283 15 14.5286 15 
</DataArray>

</PointData>
<CellData Scalars=" CellData">
<DataArray type="Float32" Name="radius" NumberOfComponents="1" format="ascii" >
0.0115 0.008 0.0115 0.008 0.008 0.0115 0.008 0.008 0.008 
</DataArray>
<DataArray type="Float32" Name="subType" NumberOfComponents="1" format="ascii" >
1 3 2 3 3 2 3 3 3 
</DataArray>
<DataArray type="Float32" Name="creationTime" NumberOfComponents="1" format="ascii" >
0 10.3993 10.979 11.5621 12.1485 12.7383 13.3316 13.9283 14.5286 
</DataArray>

</CellData>
<Points>
<DataArray type="Float32" Name="Coordinates" NumberOfComponents="3" format="ascii" >
0 0 -3 0.0152795 -0.0126528 -3.9998 0.0171868 -0.00640123 -4.17968 0.0204128 -0.00394854 -4.35964 0.0244813 0.00264401 -4.53947 0.0241452 0.0144449 -4.71908 0.0213742 0.0159159 -4.89906 0.00929569 0.0124199 -5.07862 -0.00185311 0.00957674 -5.25825 -0.0109642 0.00644542 -5.43799 -0.018661 0.00459279 -5.61782 -0.0260963 0.00412142 -5.79766 -0.0319507 0.00833464 -5.97752 -0.0376868 0.0120558 -6.15739 -0.0424502 0.0180742 -6.33722 -0.0466156 0.0228994 -6.51711 -0.0520426 0.0271658 -6.69698 -0.056191 0.0309799 -6.87689 -0.0571001 0.0335539 -7.05687 -0.0645326 0.0364519 -7.23669 -0.0716371 0.0382731 -7.41654 -0.0767291 0.0440157 -7.59638 -0.0820023 0.0497068 -7.77621 -0.0826423 0.051554 -7.80675 0.0152795 -0.0126528 -3.9998 0.92302 -0.199725 -4.37532 1.30023 -0.0669243 -4.64737 0.0171868 -0.00640123 -4.17968 -0.135598 0.0627491 -4.24507 -0.288706 0.134927 -4.30629 -0.438049 0.209237 -4.37393 -0.599588 0.259726 -4.43521 -0.759702 0.316955 -4.49428 -0.916087 0.394668 -4.53791 -1.07035 0.473452 -4.58687 -1.13814 0.503944 -4.61566 0.0204128 -0.00394854 -4.35964 -0.894767 -0.0977268 -4.75162 -1.00269 -0.118871 -4.80855 0.0244813 0.00264401 -4.53947 -0.215413 -0.8022 -4.95316 0.0241452 0.0144449 -4.71908 0.186474 -0.0356486 -4.77858 0.349075 -0.0847516 -4.83816 0.503991 -0.153944 -4.89827 0.659617 -0.218305 -4.96182 0.698175 -0.235287 -4.9779 0.0213742 0.0159159 -4.89906 0.00159524 -0.502787 -5.1048 0.00929569 0.0124199 -5.07862 0.328931 0.0418278 -5.24909 -0.00185311 0.00957674 -5.25825 -0.0978351 -0.113631 -5.29811 
</DataArray>
</Points>
<Lines>
<DataArray type="Int32" Name="connectivity" NumberOfComponents="1" format="ascii" >
0 1 2 3 4 5 6 7 8 9 10 11 12 13 14 15 16 17 18 19 20 21 22 23 24 25 26 27 28 29 30 31 32 33 34 35 36 37 38 39 40 41 42 43 44 45 46 47 48 49 50 51 52 
</DataArray>
<DataArray type="Int32" Name="offsets" NumberOfComponents="1" format="ascii" >
24 27 36 39 41 47 49 51 53 
</DataArray>

</Lines>
</Piece>
</PolyData>
</VTKFile>
