<?xml version="1.0"?><VTKFile type="PolyData" version="0.1" byte_order="LittleEndian">
<PolyData>
<Piece NumberOfLines="2" NumberOfPoints="39">
<PointData Scalars=" PointData">
<DataArray type="Float32" Name="time" NumberOfComponents="1" format="ascii" >
0 0.141576 0.283879 0.432687 0.57838 0.732743 0.902543 1.05703 1.23016 1.39723 1.53179 1.68331 1.85599 2.01572 2.20733 2.3841 2.54893 2.71373 2.86253 3.03523 3.21909 3.40869 3.56554 3.73565 3.91984 4.11589 4.28884 4.45711 4.60633 4.74837 4.9213 5.10412 5.26677 5.4469 5.63581 5.82554 6 5.94912 6 
</DataArray>

</PointData>
<CellData Scalars=" CellData">
<DataArray type="Float32" Name="radius" NumberOfComponents="1" format="ascii" >
0.13841 0.0511998 
</DataArray>
<DataArray type="Float32" Name="subType" NumberOfComponents="1" format="ascii" >
1 2 
</DataArray>
<DataArray type="Float32" Name="creationTime" NumberOfComponents="1" format="ascii" >
0 5.94912 
</DataArray>

</CellData>
<Points>
<DataArray type="Float32" Name="Coordinates" NumberOfComponents="3" format="ascii" >
0 0 -3 0.306968 0.317935 -3.02895 0.624113 0.625652 -3.07275 0.950857 0.949302 -3.12782 1.27054 1.26595 -3.17406 1.60021 1.60332 -3.25136 1.96689 1.9563 -3.37732 2.31051 2.26793 -3.4826 2.68857 2.62002 -3.60781 3.06104 2.95281 -3.71778 3.37026 3.21232 -3.79417 3.70945 3.50884 -3.8942 4.11702 3.80356 -4.04274 4.47998 4.10473 -4.15008 4.92718 4.43654 -4.30678 5.35735 4.72639 -4.42484 5.75546 4.99179 -4.55009 6.14354 5.26626 -4.68108 6.49361 5.51223 -4.79966 6.9106 5.76464 -4.96234 7.38021 5.98762 -5.12711 7.86605 6.19488 -5.31478 8.26701 6.34758 -5.487 8.69914 6.50226 -5.68535 9.16367 6.63317 -5.92696 9.66019 6.77049 -6.17684 10.0926 6.88668 -6.40698 10.5083 7.00264 -6.63563 10.859 7.09593 -6.86999 11.1904 7.18488 -7.09451 11.595 7.29404 -7.36336 12.0379 7.38582 -7.62944 12.4217 7.4298 -7.88912 12.8329 7.44853 -8.19682 13.2567 7.43486 -8.52682 13.6786 7.41876 -8.85999 14.061 7.3933 -9.17003 0.306968 0.317935 -3.02895 0.285036 0.343597 -3.02432 
</DataArray>
</Points>
<Lines>
<DataArray type="Int32" Name="connectivity" NumberOfComponents="1" format="ascii" >
0 1 2 3 4 5 6 7 8 9 10 11 12 13 14 15 16 17 18 19 20 21 22 23 24 25 26 27 28 29 30 31 32 33 34 35 36 37 38 
</DataArray>
<DataArray type="Int32" Name="offsets" NumberOfComponents="1" format="ascii" >
37 39 
</DataArray>

</Lines>
</Piece>
</PolyData>
</VTKFile>
