<?xml version="1.0"?><VTKFile type="PolyData" version="0.1" byte_order="LittleEndian">
<PolyData>
<Piece NumberOfLines="48" NumberOfPoints="288">
<PointData Scalars=" PointData">
<DataArray type="Float32" Name="time" NumberOfComponents="1" format="ascii" >
0 0.239739 0.480029 0.720874 0.962275 1 0 0.239704 0.479891 0.720563 0.961722 1 0 0.239752 0.480082 0.720994 0.962489 1 0 0.239752 0.480082 0.720994 0.962489 1 0 0.239836 0.480421 0.721758 0.963854 1 0 0.239839 0.48043 0.721779 0.963891 1 0 0.239779 0.480192 0.721242 0.962931 1 0 0.239793 0.480248 0.721368 0.963156 1 0 0.239763 0.480129 0.721098 0.962676 1 0 0.239731 0.479999 0.720807 0.962156 1 0 0.23979 0.480233 0.721335 0.963098 1 0 0.239795 0.480255 0.721384 0.963186 1 0 0.239721 0.479958 0.720713 0.961989 1 0 0.239778 0.480185 0.721227 0.962905 1 0 0.23981 0.480317 0.721523 0.963434 1 0 0.239755 0.480093 0.721019 0.962534 1 0 0.239812 0.480325 0.721542 0.963467 1 0 0.239749 0.480071 0.720969 0.962445 1 0 0.239755 0.480093 0.721019 0.962534 1 0 0.239806 0.480301 0.721487 0.96337 1 0 0.239762 0.480123 0.721085 0.962652 1 0 0.239702 0.479884 0.720546 0.961691 1 0 0.239752 0.480082 0.720994 0.962489 1 0 0.239753 0.480088 0.721006 0.962512 1 0 0.239827 0.480384 0.721676 0.963707 1 0 0.239802 0.480285 0.721452 0.963307 1 0 0.239788 0.480226 0.721319 0.96307 1 0 0.239808 0.480309 0.721505 0.963402 1 0 0.239804 0.480293 0.72147 0.963338 1 0 0.239806 0.480301 0.721487 0.96337 1 0 0.239783 0.480205 0.721272 0.962986 1 0 0.239783 0.480205 0.721272 0.962986 1 0 0.239806 0.480301 0.721487 0.96337 1 0 0.23977 0.480153 0.721154 0.962775 1 0 0.239788 0.480226 0.721319 0.96307 1 0 0.239797 0.480262 0.721401 0.963216 1 0 0.239729 0.47999 0.720785 0.962118 1 0 0.239829 0.480393 0.721696 0.963743 1 0 0.239814 0.480333 0.72156 0.9635 1 0 0.239752 0.480082 0.720994 0.962489 1 0 0.239749 0.480071 0.720969 0.962445 1 0 0.239778 0.480185 0.721227 0.962905 1 0 0.239829 0.480393 0.721696 0.963743 1 0 0.239741 0.480039 0.720897 0.962316 1 0 0.239778 0.480185 0.721227 0.962905 1 0 0.239791 0.480241 0.721351 0.963127 1 0 0.239752 0.480082 0.720994 0.962489 1 0 0.239784 0.480212 0.721288 0.963013 1 
</DataArray>

</PointData>
<CellData Scalars=" CellData">
<DataArray type="Float32" Name="radius" NumberOfComponents="1" format="ascii" >
0.15 0.15 0.15 0.15 0.15 0.15 0.15 0.15 0.15 0.15 0.15 0.15 0.15 0.15 0.15 0.15 0.15 0.15 0.15 0.15 0.15 0.15 0.15 0.15 0.15 0.15 0.15 0.15 0.15 0.15 0.15 0.15 0.15 0.15 0.15 0.15 0.15 0.15 0.15 0.15 0.15 0.15 0.15 0.15 0.15 0.15 0.15 0.15 
</DataArray>
<DataArray type="Float32" Name="subType" NumberOfComponents="1" format="ascii" >
1 4 4 4 4 4 4 4 4 4 4 4 4 4 4 4 4 4 4 4 4 4 4 4 4 4 4 4 4 4 4 4 4 4 4 4 4 4 4 4 4 4 4 4 4 4 4 4 
</DataArray>
<DataArray type="Float32" Name="creationTime" NumberOfComponents="1" format="ascii" >
0 0 0 0 0 0 0 0 0 0 0 0 0 0 0 0 0 0 0 0 0 0 0 0 0 0 0 0 0 0 0 0 0 0 0 0 0 0 0 0 0 0 0 0 0 0 0 0 
</DataArray>

</CellData>
<Points>
<DataArray type="Float32" Name="Coordinates" NumberOfComponents="3" format="ascii" >
0 0 -3 -0.230783 0.0285214 -3.44263 -0.450734 0.065627 -3.89012 -0.703442 0.0910746 -4.32081 -0.954576 0.0587219 -4.75195 -0.994103 0.0529288 -4.81898 0 0 -3 -0.097822 -0.215943 -3.44023 -0.205442 -0.427969 -3.88007 -0.358928 -0.708922 -4.26414 -0.518342 -0.94709 -4.67385 -0.546263 -0.980229 -4.74023 0 0 -3 -0.101289 -0.195782 -3.44879 -0.184804 -0.32999 -3.92314 -0.181756 -0.409568 -4.41676 -0.176389 -0.541915 -4.8989 -0.178867 -0.564048 -4.97318 0 0 -3 0.12955 -0.127618 -3.46576 0.339931 -0.122892 -3.91932 0.501938 -0.165368 -4.39043 0.659264 -0.198171 -4.8639 0.684863 -0.202171 -4.937 0 0 -3 -0.197487 0.14234 -3.43674 -0.392262 0.287202 -3.87386 -0.542667 0.417461 -4.33257 -0.733185 0.555802 -4.77366 -0.763046 0.573169 -4.83969 0 0 -3 0.152851 -0.196965 -3.43341 0.322011 -0.343622 -3.88048 0.478274 -0.444492 -4.3446 0.595774 -0.397169 -4.82829 0.608449 -0.394835 -4.9016 0 0 -3 0.16539 0.155816 -3.44538 0.3298 0.308583 -3.89219 0.492528 0.472397 -4.33568 0.637517 0.674738 -4.76931 0.658243 0.705951 -4.83608 0 0 -3 -0.172634 -0.0719993 -3.4637 -0.407953 -0.153225 -3.89732 -0.661916 -0.276057 -4.31013 -0.930917 -0.420127 -4.70621 -0.972839 -0.441427 -4.76601 0 0 -3 0.0430526 0.235418 -3.439 0.129896 0.459287 -3.87757 0.250078 0.682772 -4.3084 0.36917 0.878486 -4.75282 0.388804 0.90827 -4.82122 0 0 -3 -0.174818 -0.153412 -3.44261 -0.420511 -0.271277 -3.86183 -0.682939 -0.366158 -4.27671 -0.955858 -0.434738 -4.69001 -0.998935 -0.443238 -4.75483 0 0 -3 0.229668 -0.000135613 -3.44413 0.409531 0.104934 -3.89867 0.580767 0.229874 -4.35152 0.729968 0.32721 -4.81871 0.751811 0.339394 -4.89068 0 0 -3 -0.181021 0.160753 -3.43748 -0.325057 0.34833 -3.87801 -0.475122 0.551473 -4.30954 -0.632685 0.749143 -4.74093 -0.656276 0.780737 -4.80591 0 0 -3 -0.0656292 -0.219834 -3.44426 -0.103738 -0.374678 -3.91815 -0.0891803 -0.597474 -4.36553 -0.0625262 -0.825943 -4.80948 -0.0602426 -0.860231 -4.88025 0 0 -3 0.180632 0.171007 -3.43374 0.451415 0.32122 -3.82631 0.700298 0.481093 -4.22942 1.00681 0.63518 -4.59316 1.05068 0.661792 -4.65008 0 0 -3 -0.149582 0.237692 -3.41368 -0.173829 0.523273 -3.82338 -0.142686 0.873538 -4.17883 -0.137923 1.21097 -4.54776 -0.136248 1.25364 -4.60997 0 0 -3 0.172883 -0.166114 -3.43877 0.29073 -0.31216 -3.90221 0.429902 -0.520746 -4.33479 0.577645 -0.68354 -4.78387 0.600942 -0.704298 -4.85476 0 0 -3 -0.0135283 -0.226152 -3.44573 -0.108361 -0.472824 -3.87018 -0.237089 -0.68972 -4.3019 -0.373213 -0.900919 -4.73418 -0.393763 -0.932656 -4.79939 0 0 -3 -0.162505 -0.153138 -3.44737 -0.321937 -0.312136 -3.8938 -0.385341 -0.570507 -4.31715 -0.48011 -0.844864 -4.72427 -0.495672 -0.88587 -4.78835 0 0 -3 0.0576472 -0.190219 -3.4588 -0.016394 -0.449062 -3.88012 -0.106296 -0.652872 -4.32776 -0.195967 -0.751691 -4.80963 -0.212109 -0.763463 -4.88446 0 0 -3 -0.225695 -0.0718744 -3.44034 -0.455842 -0.144251 -3.87828 -0.700141 -0.231493 -4.30572 -0.944491 -0.323906 -4.73205 -0.981597 -0.337483 -4.79649 0 0 -3 -0.0904975 -0.166245 -3.46279 -0.146107 -0.378631 -3.91201 -0.242859 -0.571261 -4.36316 -0.36305 -0.780091 -4.80127 -0.38394 -0.817528 -4.86546 0 0 -3 0.252355 0.0397445 -3.42981 0.535276 0.0782062 -3.84027 0.776128 0.171452 -4.2684 1.04029 0.269208 -4.68151 1.08103 0.289866 -4.74638 0 0 -3 -0.225537 -0.0892425 -3.43723 -0.450005 -0.176182 -3.87547 -0.583117 -0.297081 -4.34202 -0.70267 -0.363831 -4.8229 -0.724265 -0.376091 -4.89637 0 0 -3 0.161456 0.178899 -3.43809 0.313394 0.420968 -3.84836 0.500358 0.632575 -4.26099 0.68934 0.851512 -4.66886 0.71688 0.885207 -4.73299 0 0 -3 0.0182336 -0.164792 -3.47171 -0.00280772 -0.325098 -3.94485 0.0447189 -0.425893 -4.43227 0.106579 -0.51494 -4.92037 0.110247 -0.532303 -4.99308 0 0 -3 0.249455 -0.123463 -3.41537 0.474854 -0.253609 -3.84228 0.672783 -0.465409 -4.24967 0.952185 -0.679143 -4.60499 0.994353 -0.709517 -4.66008 0 0 -3 -0.250539 -0.034367 -3.43133 -0.518527 -0.0906141 -3.84969 -0.791251 -0.122583 -4.26754 -1.13972 -0.236419 -4.60755 -1.19284 -0.2558 -4.65872 0 0 -3 -0.227358 -0.104588 -3.43286 -0.435647 -0.188697 -3.87956 -0.647025 -0.271305 -4.32509 -0.857989 -0.355292 -4.77056 -0.891882 -0.364856 -4.83737 0 0 -3 0.218306 -0.124703 -3.43219 0.424866 -0.248487 -3.87038 0.596068 -0.411514 -4.31097 0.764942 -0.566455 -4.75535 0.788759 -0.590504 -4.82302 0 0 -3 0.177856 -0.162931 -3.43797 0.373839 -0.329757 -3.86665 0.559201 -0.44607 -4.31621 0.777156 -0.56889 -4.74912 0.806114 -0.587033 -4.81655 0 0 -3 -0.050444 0.222167 -3.44508 -0.0596671 0.482338 -3.87196 -0.0777622 0.755425 -4.29041 -0.0362962 1.03457 -4.70315 -0.0286905 1.08223 -4.76243 0 0 -3 0.186894 0.0888573 -3.45516 0.432781 0.190473 -3.8785 0.688626 0.265328 -4.30151 0.914742 0.291492 -4.7467 0.953032 0.297431 -4.8126 0 0 -3 -0.361039 0.0973492 -3.33192 -0.651862 0.227763 -3.71717 -0.952492 0.437806 -4.05703 -1.26664 0.597853 -4.41156 -1.31336 0.622003 -4.46586 0 0 -3 0.0679088 0.230037 -3.43872 0.182518 0.460905 -3.86716 0.333287 0.706765 -4.2756 0.516523 0.959715 -4.66604 0.543946 1.00058 -4.72515 0 0 -3 -0.156125 -0.194338 -3.43343 -0.316714 -0.354684 -3.87896 -0.482765 -0.489121 -4.33101 -0.669167 -0.67934 -4.75418 -0.694892 -0.704479 -4.82143 0 0 -3 -0.12868 0.214607 -3.43288 -0.247368 0.430506 -3.86797 -0.377116 0.667039 -4.28894 -0.498955 0.860645 -4.73354 -0.517255 0.890379 -4.80098 0 0 -3 -0.190475 0.107395 -3.44965 -0.315618 0.169419 -3.92975 -0.366946 0.189532 -4.4267 -0.401391 0.171727 -4.92519 -0.416631 0.172546 -5.00208 0 0 -3 -0.0909304 0.179427 -3.45775 -0.189335 0.330902 -3.92398 -0.300455 0.471901 -4.39064 -0.395311 0.608165 -4.86227 -0.407063 0.629087 -4.93308 0 0 -3 -0.155801 0.167893 -3.44445 -0.221028 0.324396 -3.91483 -0.314909 0.53587 -4.35807 -0.443645 0.765255 -4.78329 -0.470983 0.79191 -4.84819 0 0 -3 -0.105392 0.210299 -3.44121 -0.250841 0.389269 -3.88485 -0.278799 0.444242 -4.38103 -0.309873 0.484238 -4.87846 -0.315397 0.487246 -4.95576 0 0 -3 0.103765 -0.221339 -3.43617 0.115075 -0.371288 -3.91302 0.12755 -0.521201 -4.38985 0.0724641 -0.644196 -4.87135 0.0634469 -0.66325 -4.94609 0 0 -3 0.0176318 0.203432 -3.4564 -0.00198049 0.406491 -3.91289 -0.0459768 0.589781 -4.376 -0.082301 0.79633 -4.82989 -0.0883571 0.828348 -4.89925 0 0 -3 -0.113964 0.211528 -3.43848 -0.290251 0.4293 -3.85261 -0.466169 0.611146 -4.28387 -0.583109 0.794611 -4.73405 -0.602544 0.82559 -4.79926 0 0 -3 -0.259454 -0.0929423 -3.41719 -0.540038 -0.170246 -3.82375 -0.82698 -0.251807 -4.22502 -1.13635 -0.296187 -4.6153 -1.18538 -0.305016 -4.67524 0 0 -3 0.236947 0.159212 -3.4105 0.44031 0.376661 -3.81219 0.670847 0.588233 -4.20218 0.911035 0.798816 -4.58684 0.947214 0.828699 -4.64742 0 0 -3 0.186294 -0.137823 -3.44306 0.413917 -0.267764 -3.86885 0.638039 -0.391139 -4.29844 0.878789 -0.519461 -4.71746 0.913843 -0.531688 -4.78393 0 0 -3 0.240715 0.0858557 -3.42975 0.525233 0.111702 -3.84009 0.823948 0.119224 -4.24098 1.08742 0.110045 -4.66583 1.1282 0.109485 -4.7318 0 0 -3 0.0625004 -0.249507 -3.42877 0.172216 -0.506018 -3.84369 0.274525 -0.798358 -4.23621 0.363783 -1.05246 -4.65748 0.377566 -1.0911 -4.72191 
</DataArray>
</Points>
<Lines>
<DataArray type="Int32" Name="connectivity" NumberOfComponents="1" format="ascii" >
0 1 2 3 4 5 6 7 8 9 10 11 12 13 14 15 16 17 18 19 20 21 22 23 24 25 26 27 28 29 30 31 32 33 34 35 36 37 38 39 40 41 42 43 44 45 46 47 48 49 50 51 52 53 54 55 56 57 58 59 60 61 62 63 64 65 66 67 68 69 70 71 72 73 74 75 76 77 78 79 80 81 82 83 84 85 86 87 88 89 90 91 92 93 94 95 96 97 98 99 100 101 102 103 104 105 106 107 108 109 110 111 112 113 114 115 116 117 118 119 120 121 122 123 124 125 126 127 128 129 130 131 132 133 134 135 136 137 138 139 140 141 142 143 144 145 146 147 148 149 150 151 152 153 154 155 156 157 158 159 160 161 162 163 164 165 166 167 168 169 170 171 172 173 174 175 176 177 178 179 180 181 182 183 184 185 186 187 188 189 190 191 192 193 194 195 196 197 198 199 200 201 202 203 204 205 206 207 208 209 210 211 212 213 214 215 216 217 218 219 220 221 222 223 224 225 226 227 228 229 230 231 232 233 234 235 236 237 238 239 240 241 242 243 244 245 246 247 248 249 250 251 252 253 254 255 256 257 258 259 260 261 262 263 264 265 266 267 268 269 270 271 272 273 274 275 276 277 278 279 280 281 282 283 284 285 286 287 
</DataArray>
<DataArray type="Int32" Name="offsets" NumberOfComponents="1" format="ascii" >
6 12 18 24 30 36 42 48 54 60 66 72 78 84 90 96 102 108 114 120 126 132 138 144 150 156 162 168 174 180 186 192 198 204 210 216 222 228 234 240 246 252 258 264 270 276 282 288 
</DataArray>

</Lines>
</Piece>
</PolyData>
</VTKFile>
