<?xml version="1.0"?><VTKFile type="PolyData" version="0.1" byte_order="LittleEndian">
<PolyData>
<Piece NumberOfLines="26" NumberOfPoints="299">
<PointData Scalars=" PointData">
<DataArray type="Float32" Name="time" NumberOfComponents="1" format="ascii" >
0 0.250348 0.60201 0.955052 1.30949 1.66532 2.02257 2.38124 2.74135 3.10291 3.46592 3.83041 4.19638 4.56385 4.93282 5.30331 5.67533 6.0489 6.42403 6.80073 7.17901 7.55889 7.94038 8.3235 8.70825 9.09466 9.48273 9.87249 10.2639 10.6571 11.052 11.4486 11.847 12.2472 12.6491 13.0529 13.4584 13.8659 14.2751 14.6863 15 5.22379 5.56875 5.93929 6.33951 6.77456 7.25112 7.77792 8.36683 9.03449 9.80524 10.7169 11.8326 13.271 15 5.59548 5.94045 6.31099 6.7112 7.14626 7.62281 8.14961 8.73853 9.40618 10.1769 11.0885 12.2043 13.6427 15 5.96872 6.31369 6.68423 7.08444 7.5195 7.99605 8.52285 9.11177 9.77942 10.5502 11.4618 12.5775 14.0159 15 6.34351 6.68848 7.05902 7.45923 7.89429 8.37084 8.89764 9.48656 10.1542 10.925 11.8366 12.9523 14.3907 15 6.71987 7.06484 7.43538 7.83559 8.27065 8.7472 9.274 9.86292 10.5306 11.3013 12.2129 13.3287 14.7671 15 7.09782 7.44278 7.81332 8.21353 8.64859 9.12514 9.65194 10.2409 10.9085 11.6793 12.5909 13.7066 15 7.47735 7.82232 8.19286 8.59307 9.02813 9.50468 10.0315 10.6204 11.2881 12.0588 12.9704 14.0861 15 7.8585 8.20346 8.574 8.97421 9.40927 9.88582 10.4126 11.0015 11.6692 12.44 13.3516 14.4673 15 8.24126 8.58623 8.95677 9.35698 9.79204 10.2686 10.7954 11.3843 12.052 12.8227 13.7343 14.85 15 8.62567 8.97063 9.34117 9.74138 10.1764 10.653 11.1798 11.7687 12.4364 13.2071 14.1187 15 9.01172 9.35668 9.72722 10.1274 10.5625 11.039 11.5658 12.1548 12.8224 13.5932 14.5048 15 9.39943 9.7444 10.1149 10.5152 10.9502 11.4268 11.9536 12.5425 13.2101 13.9809 14.8925 15 9.78883 10.1338 10.5043 10.9045 11.3396 11.8162 12.343 12.9319 13.5995 14.3703 15 10.1799 10.5249 10.8954 11.2956 11.7307 12.2072 12.734 13.323 13.9906 14.7614 15 10.5727 10.9177 11.2882 11.6884 12.1235 12.6 13.1268 13.7158 14.3834 15 10.9672 11.3122 11.6827 12.0829 12.518 12.9946 13.5214 14.1103 14.7779 15 11.3635 11.7085 12.079 12.4792 12.9143 13.3908 13.9176 14.5065 15 11.7615 12.1065 12.477 12.8772 13.3123 13.7888 14.3156 14.9045 15 12.1613 12.5062 12.8768 13.277 13.712 14.1886 14.7154 15 12.5628 12.9078 13.2783 13.6786 14.1136 14.5902 15 12.9662 13.3112 13.6817 14.0819 14.517 14.9935 15 13.3714 13.7163 14.0869 14.4871 14.9222 15 13.7784 14.1234 14.4939 14.8941 15 14.1873 14.5322 14.9028 15 14.598 14.943 15 
</DataArray>

</PointData>
<CellData Scalars=" CellData">
<DataArray type="Float32" Name="radius" NumberOfComponents="1" format="ascii" >
0.13 0.0443867 0.0443477 0.0581744 0.0441656 0.0474765 0.0577011 0.0451138 0.0488265 0.0398432 0.0539231 0.0527022 0.0527426 0.0504559 0.0526226 0.0499837 0.0522573 0.0576543 0.0626177 0.0391843 0.0556971 0.0562127 0.0556746 0.0477942 0.0576119 0.0483027 
</DataArray>
<DataArray type="Float32" Name="subType" NumberOfComponents="1" format="ascii" >
1 2 2 2 2 2 2 2 2 2 2 2 2 2 2 2 2 2 2 2 2 2 2 2 2 2 
</DataArray>
<DataArray type="Float32" Name="creationTime" NumberOfComponents="1" format="ascii" >
0 5.22379 5.59548 5.96872 6.34351 6.71987 7.09782 7.47735 7.8585 8.24126 8.62567 9.01172 9.39943 9.78883 10.1799 10.5727 10.9672 11.3635 11.7615 12.1613 12.5628 12.9662 13.3714 13.7784 14.1873 14.598 
</DataArray>

</CellData>
<Points>
<DataArray type="Float32" Name="Coordinates" NumberOfComponents="3" format="ascii" >
0 0 -3 0.0155571 -0.0043687 -3.49974 0.0507807 0.000115538 -4.19884 0.0510154 -0.0130774 -4.89871 0.0407175 -0.0455815 -5.59788 0.0207712 -0.0757162 -6.29695 -0.0104753 -0.0635398 -6.99615 -0.045381 -0.0612502 -7.69527 -0.0642859 -0.0536165 -8.39497 -0.0692685 0.0144853 -9.09164 -0.123973 0.0609958 -9.78794 -0.175324 0.0845153 -10.4857 -0.254775 0.0804369 -11.1811 -0.276661 0.0786942 -11.8808 -0.26883 0.0974196 -12.5805 -0.226634 0.123061 -13.2787 -0.146502 0.125969 -13.9741 -0.0832303 0.148599 -14.6709 0.00231052 0.175473 -15.3651 0.0939411 0.212522 -16.0581 0.122229 0.181315 -16.7569 0.128749 0.201296 -17.4565 0.131393 0.214908 -18.1564 0.174493 0.184387 -18.8544 0.19556 0.173786 -19.554 0.182362 0.157581 -20.2537 0.16735 0.139649 -20.9533 0.150297 0.123418 -21.6529 0.146129 0.105178 -22.3527 0.148937 0.0216109 -23.0476 0.164086 -0.0206815 -23.7462 0.170539 -0.0575517 -24.4452 0.165497 -0.0922175 -25.1443 0.13691 -0.129684 -25.8427 0.0112195 -0.0824744 -26.5297 -0.0960139 0.0732471 -27.2037 -0.214604 0.157268 -27.8885 -0.316592 0.252452 -28.5744 -0.418573 0.346729 -29.2605 -0.499511 0.44829 -29.9484 -0.585323 0.502751 -30.4706 0.0155571 -0.0043687 -3.49974 -0.681288 -0.581272 -3.92587 -1.25886 -1.15351 -4.50807 -1.82352 -1.72738 -5.10123 -2.41223 -2.21574 -5.74537 -2.91678 -2.69786 -6.4616 -3.42399 -3.17666 -7.17818 -3.78167 -3.78784 -7.88425 -4.10042 -4.37228 -8.63045 -4.37452 -4.89294 -9.43902 -4.67616 -5.37235 -10.2631 -4.89817 -5.97143 -11.0324 -5.13784 -6.54917 -11.8127 -5.35083 -7.04058 -12.5072 0.0507807 0.000115538 -4.19884 1.02718 0.197447 -4.28666 1.99125 0.39699 -4.462 2.97806 0.386469 -4.62356 3.94551 0.288532 -4.85687 4.89137 0.355017 -5.17456 5.82065 0.359781 -5.54392 6.75132 0.364309 -5.90975 7.67887 0.372025 -6.28338 8.53246 0.25849 -6.7918 9.37092 0.170055 -7.32953 10.1579 0.101076 -7.94268 10.8386 0.165395 -8.67236 11.3163 0.218507 -9.19934 0.0510154 -0.0130774 -4.89871 0.725312 -0.723234 -5.1012 1.40629 -1.4377 -5.26185 2.04301 -2.19418 -5.41125 2.51414 -3.06016 -5.57893 3.04822 -3.89311 -5.72367 3.52397 -4.73423 -5.98093 4.00662 -5.50263 -6.40118 4.48553 -6.28049 -6.80811 4.92275 -7.06057 -7.25567 5.35123 -7.84828 -7.69829 5.84219 -8.55494 -8.2078 6.34821 -9.25818 -8.70719 6.60523 -9.63265 -8.99177 0.0407175 -0.0455815 -5.59788 -0.51632 -0.792733 -5.23529 -1.09552 -1.54529 -4.92194 -1.7152 -2.31404 -4.76379 -2.32905 -3.08904 -4.61356 -2.94128 -3.87825 -4.56548 -3.54593 -4.67357 -4.52227 -4.14236 -5.47562 -4.49062 -4.75193 -6.26829 -4.48128 -5.30062 -7.10432 -4.48085 -5.92272 -7.88487 -4.41976 -6.60805 -8.6048 -4.31007 -7.24654 -9.37129 -4.24069 -7.47159 -9.63055 -4.21625 0.0207712 -0.0757162 -6.29695 0.882135 0.426756 -6.2223 1.73271 0.945444 -6.13582 2.58631 1.45055 -6.00838 3.46048 1.91774 -5.87587 4.33474 2.38574 -5.74681 5.20887 2.84281 -5.58255 6.06388 3.35315 -5.49028 6.90358 3.89506 -5.45512 7.72461 4.46573 -5.43959 8.58967 4.964 -5.49787 9.47231 5.42338 -5.59745 10.3482 5.89937 -5.67653 10.4679 5.96394 -5.68916 -0.0104753 -0.0635398 -6.99615 -0.866071 -0.564171 -7.12777 -1.7579 -0.993753 -7.26957 -2.67927 -1.34968 -7.4257 -3.61905 -1.63173 -7.61876 -4.56018 -1.82625 -7.89523 -5.49809 -1.97653 -8.20787 -6.38349 -2.01089 -8.67141 -7.26096 -2.0356 -9.15042 -8.13185 -2.08706 -9.6392 -9.01087 -2.13123 -10.1139 -9.88951 -2.15896 -10.5906 -10.6972 -2.2291 -11.0077 -0.045381 -0.0612502 -7.69527 -1.03488 -0.148668 -7.58019 -2.02328 -0.246485 -7.464 -3.01937 -0.312903 -7.4057 -4.01078 -0.443497 -7.41299 -5.00584 -0.531534 -7.45875 -5.97692 -0.527761 -7.69749 -6.91859 -0.680929 -7.99716 -7.86681 -0.732029 -8.31063 -8.79839 -0.904825 -8.63048 -9.73781 -0.980344 -8.96481 -10.6717 -1.04345 -9.31686 -11.2995 -1.07454 -9.54338 -0.0642859 -0.0536165 -8.39497 0.880213 -0.340894 -8.55433 1.80118 -0.689461 -8.72844 2.71387 -1.05599 -8.90916 3.59274 -1.49761 -9.08958 4.47497 -1.8549 -9.39622 5.3048 -2.28864 -9.74728 6.16153 -2.70393 -10.0532 7.06008 -2.91623 -10.4372 7.98467 -2.96907 -10.8145 8.86316 -2.96735 -11.2923 9.71362 -2.99699 -11.8175 10.058 -3.00582 -12.0291 -0.0692685 0.0144853 -9.09164 0.791208 -0.482113 -9.20552 1.65453 -0.96986 -9.33504 2.44081 -1.5544 -9.53525 3.21226 -2.15403 -9.74811 4.0037 -2.69369 -10.0351 4.74933 -3.26171 -10.3835 5.50878 -3.80724 -10.738 6.31012 -4.27374 -11.1125 7.1118 -4.73206 -11.4962 7.91028 -5.16925 -11.9101 8.68033 -5.63154 -12.3497 8.77287 -5.68436 -12.4009 -0.123973 0.0609958 -9.78794 0.498992 -0.670799 -10.0643 0.963614 -1.48205 -10.4193 1.43772 -2.29757 -10.7512 1.87733 -3.02396 -11.2795 2.29805 -3.82165 -11.7115 2.59038 -4.62508 -12.2302 2.66155 -5.45975 -12.7764 2.67351 -6.29173 -13.3311 2.66347 -7.08479 -13.9401 2.65297 -7.88935 -14.5339 2.59263 -8.49583 -15.0643 -0.175324 0.0845153 -10.4857 0.531312 -0.567037 -10.7616 1.28174 -1.17257 -11.0265 1.92569 -1.81816 -11.4371 2.551 -2.45055 -11.8943 3.20567 -3.05772 -12.3446 3.80634 -3.65537 -12.8756 4.37568 -4.27306 -13.4181 4.95281 -4.83766 -14.0082 5.51984 -5.40998 -14.6006 6.03697 -5.94886 -15.2655 6.28092 -6.19868 -15.5824 -0.254775 0.0804369 -11.1811 0.537772 -0.341656 -11.6212 1.30241 -0.762314 -12.1095 2.04019 -1.19043 -12.6314 2.75039 -1.62517 -13.1851 3.44929 -1.99651 -13.7964 4.14231 -2.35844 -14.4199 4.85518 -2.63136 -15.0659 5.54653 -2.92147 -15.7276 6.18506 -3.14565 -16.4638 6.84436 -3.34711 -17.1882 6.91481 -3.36774 -17.2652 -0.276661 0.0786942 -11.8808 0.629141 0.445088 -12.0936 1.53274 0.812314 -12.3141 2.44909 1.15114 -12.5274 3.3685 1.42777 -12.807 4.27211 1.61572 -13.1919 5.18045 1.80494 -13.5649 6.09052 1.99611 -13.9327 7.02786 2.15275 -14.2439 7.97598 2.16876 -14.5614 8.6006 2.18599 -14.8985 -0.26883 0.0974196 -12.5805 0.0927391 1.00809 -12.3806 0.411712 1.94204 -12.2194 0.598206 2.91604 -12.0907 0.785621 3.89709 -12.1397 0.99927 4.87312 -12.1813 1.06595 5.86458 -12.2934 1.14705 6.85689 -12.3869 1.21577 7.84337 -12.5357 1.28077 8.83019 -12.6839 1.29393 9.10598 -12.7281 -0.226634 0.123061 -13.2787 -0.442373 1.06915 -13.5204 -0.657991 2.016 -13.7591 -0.785367 2.94146 -14.1158 -0.92161 3.86218 -14.4815 -0.987151 4.7884 -14.8528 -1.04777 5.71968 -15.212 -1.10413 6.63955 -15.6001 -1.15988 7.56296 -15.9799 -1.23776 8.2999 -16.3121 -0.146502 0.125969 -13.9741 -1.02372 -0.336649 -14.1025 -1.87239 -0.848144 -14.2371 -2.75 -1.3101 -14.3652 -3.66492 -1.65464 -14.5755 -4.51616 -2.12697 -14.8042 -5.11134 -2.86667 -15.1182 -5.6613 -3.62089 -15.4769 -5.9954 -4.4353 -15.9514 -6.09435 -4.68246 -16.0983 -0.0832303 0.148599 -14.6709 0.210835 1.10303 -14.6201 0.476471 2.06698 -14.6043 0.625354 3.03315 -14.8148 0.802724 3.98318 -15.0717 0.951344 4.93549 -15.3382 1.09759 5.86155 -15.6861 1.17023 6.77749 -16.0808 1.0641 7.46483 -16.3664 0.00231052 0.175473 -15.3651 0.999534 0.17492 -15.2907 1.99402 0.119582 -15.3797 2.98723 0.140031 -15.4943 3.97724 0.190211 -15.6261 4.90818 0.471238 -15.8592 5.80904 0.837605 -16.0921 6.71537 1.22614 -16.2582 6.85309 1.2843 -16.2815 0.0939411 0.212522 -16.0581 -0.815031 0.367877 -16.4449 -1.69894 0.628069 -16.8335 -2.49725 1.06384 -17.2492 -3.29727 1.49775 -17.6636 -4.07511 1.94733 -18.1027 -4.87005 2.38335 -18.5246 -5.26544 2.59967 -18.7363 0.122229 0.181315 -16.7569 -0.652726 -0.440786 -16.8684 -1.48372 -0.990455 -16.9539 -2.301 -1.55973 -17.0433 -3.10884 -2.13773 -17.1586 -3.9472 -2.66602 -17.293 -4.58036 -3.10742 -17.4467 0.128749 0.201296 -17.4565 0.836669 0.901313 -17.5505 1.5456 1.58105 -17.7386 2.26367 2.23117 -17.987 2.90868 2.91503 -18.328 3.55888 3.59395 -18.6691 3.56734 3.60281 -18.6732 0.131393 0.214908 -18.1564 1.01004 -0.214387 -18.3654 1.95304 -0.429657 -18.6192 2.8953 -0.649209 -18.8721 3.83118 -0.936454 -19.0761 3.9902 -0.985329 -19.1107 0.174493 0.184387 -18.8544 -0.114764 1.04588 -19.2717 -0.393269 1.90649 -19.6981 -0.69911 2.74075 -20.1569 -0.778656 2.94657 -20.2775 0.19556 0.173786 -19.554 0.895959 0.874123 -19.6917 1.63969 1.53014 -19.8202 1.81033 1.70397 -19.8781 0.182362 0.157581 -20.2537 1.11316 0.312665 -20.5847 1.25502 0.343309 -20.6492 
</DataArray>
</Points>
<Lines>
<DataArray type="Int32" Name="connectivity" NumberOfComponents="1" format="ascii" >
0 1 2 3 4 5 6 7 8 9 10 11 12 13 14 15 16 17 18 19 20 21 22 23 24 25 26 27 28 29 30 31 32 33 34 35 36 37 38 39 40 41 42 43 44 45 46 47 48 49 50 51 52 53 54 55 56 57 58 59 60 61 62 63 64 65 66 67 68 69 70 71 72 73 74 75 76 77 78 79 80 81 82 83 84 85 86 87 88 89 90 91 92 93 94 95 96 97 98 99 100 101 102 103 104 105 106 107 108 109 110 111 112 113 114 115 116 117 118 119 120 121 122 123 124 125 126 127 128 129 130 131 132 133 134 135 136 137 138 139 140 141 142 143 144 145 146 147 148 149 150 151 152 153 154 155 156 157 158 159 160 161 162 163 164 165 166 167 168 169 170 171 172 173 174 175 176 177 178 179 180 181 182 183 184 185 186 187 188 189 190 191 192 193 194 195 196 197 198 199 200 201 202 203 204 205 206 207 208 209 210 211 212 213 214 215 216 217 218 219 220 221 222 223 224 225 226 227 228 229 230 231 232 233 234 235 236 237 238 239 240 241 242 243 244 245 246 247 248 249 250 251 252 253 254 255 256 257 258 259 260 261 262 263 264 265 266 267 268 269 270 271 272 273 274 275 276 277 278 279 280 281 282 283 284 285 286 287 288 289 290 291 292 293 294 295 296 297 298 
</DataArray>
<DataArray type="Int32" Name="offsets" NumberOfComponents="1" format="ascii" >
41 55 69 83 97 111 124 137 150 163 175 187 199 210 221 231 241 250 259 267 274 281 287 292 296 299 
</DataArray>

</Lines>
</Piece>
</PolyData>
</VTKFile>
