<?xml version="1.0"?><VTKFile type="PolyData" version="0.1" byte_order="LittleEndian">
<PolyData>
<Piece NumberOfLines="6" NumberOfPoints="46">
<PointData Scalars=" PointData">
<DataArray type="Float32" Name="time" NumberOfComponents="1" format="ascii" >
0 0.0454834 0.0910244 0.136623 0.18228 0.227996 0.273769 0.301261 0.347128 0.393054 0.420638 0.466658 0.512737 0.540413 0.586587 0.63282 0.660589 0.706918 0.753307 0.781169 0.827654 0.8742 0.902156 0.948798 0.995501 1 0.48969 0.615079 0.741254 0.868223 0.995998 1 0.609696 0.735085 0.86126 0.98823 1 0.730105 0.855494 0.981669 1 0.850919 0.976309 1 0.972142 1 
</DataArray>

</PointData>
<CellData Scalars=" CellData">
<DataArray type="Float32" Name="radius" NumberOfComponents="1" format="ascii" >
0.2 0.04 0.04 0.04 0.04 0.04 
</DataArray>
<DataArray type="Float32" Name="subType" NumberOfComponents="1" format="ascii" >
1 2 2 2 2 2 
</DataArray>
<DataArray type="Float32" Name="creationTime" NumberOfComponents="1" format="ascii" >
0 0.48969 0.609696 0.730105 0.850919 0.972142 
</DataArray>

</CellData>
<Points>
<DataArray type="Float32" Name="Coordinates" NumberOfComponents="3" format="ascii" >
0 0 -3 0.00449831 -0.000357148 -3.24996 -0.00247619 0.00140904 -3.49986 -0.0218796 -0.00225218 -3.74907 -0.0503512 -0.00975369 -3.99733 -0.0905361 -0.00303177 -4.24399 -0.100047 0.00211422 -4.49376 -0.10459 0.0051376 -4.64366 -0.112777 0.0111529 -4.89345 -0.116099 0.0218451 -5.1432 -0.119144 0.0165297 -5.29308 -0.0978078 0.0043994 -5.54187 -0.07354 0.0111026 -5.7906 -0.0584173 0.0173817 -5.9397 -0.0438241 0.0288431 -6.18901 -0.0324576 0.0202351 -6.43861 -0.0125178 0.0356849 -6.58647 0.0181142 0.0614546 -6.83324 0.0581324 0.0839418 -7.07899 0.0814395 0.0871019 -7.22714 0.0991993 0.101 -7.47612 0.122352 0.114226 -7.72469 0.135462 0.11865 -7.87405 0.142723 0.130751 -8.12365 0.129296 0.139537 -8.37314 0.127818 0.14157 -8.39707 -0.0503512 -0.00975369 -3.99733 0.0453285 0.187592 -4.11734 0.106744 0.415567 -4.19953 0.168898 0.641559 -4.2865 0.236473 0.843589 -4.41734 0.238668 0.849872 -4.42141 -0.10459 0.0051376 -4.64366 -0.305944 0.123105 -4.73333 -0.481503 0.240996 -4.86667 -0.668175 0.363149 -4.97951 -0.684971 0.37498 -4.99006 -0.119144 0.0165297 -5.29308 -0.287545 -0.149501 -5.37416 -0.484129 -0.284794 -5.44867 -0.513174 -0.304009 -5.45851 -0.0584173 0.0173817 -5.9397 -0.173541 0.222542 -6.02429 -0.194259 0.261312 -6.0411 -0.0125178 0.0356849 -6.58647 -0.0158749 0.0893094 -6.60107 
</DataArray>
</Points>
<Lines>
<DataArray type="Int32" Name="connectivity" NumberOfComponents="1" format="ascii" >
0 1 2 3 4 5 6 7 8 9 10 11 12 13 14 15 16 17 18 19 20 21 22 23 24 25 26 27 28 29 30 31 32 33 34 35 36 37 38 39 40 41 42 43 44 45 
</DataArray>
<DataArray type="Int32" Name="offsets" NumberOfComponents="1" format="ascii" >
26 32 37 41 44 46 
</DataArray>

</Lines>
</Piece>
</PolyData>
</VTKFile>
