<?xml version="1.0"?><VTKFile type="PolyData" version="0.1" byte_order="LittleEndian">
<PolyData>
<Piece NumberOfLines="27" NumberOfPoints="153">
<PointData Scalars=" PointData">
<DataArray type="Float32" Name="time" NumberOfComponents="1" format="ascii" >
0 0.15635 0.292313 0.422893 0.575036 0.726875 0.878216 1.02413 1.16999 1.31826 1.47571 1.60877 1.77074 1.92094 2.06512 2.20584 2.36039 2.52614 2.68203 2.84372 2.99056 3.16166 3.29225 3.46319 3.58296 3.75018 3.90101 4.07835 4.2469 4.39927 4.55616 4.73263 4.89158 5.03711 5.2158 5.38792 5.57241 5.73129 5.89583 6.07752 6.27071 6.45392 6.61847 6.78476 6.94476 7.12356 7.29565 7.45403 7.62998 7.80956 7.95763 8.11851 8.30539 8.47106 8.65317 8.83507 9.02892 9.18603 9.38104 9.52077 9.69535 9.90436 10 5.95558 7.17458 8.56107 10 6.10704 7.38812 8.84522 10 6.25254 7.55249 9.03103 10 6.42212 7.94311 9.67307 10 6.59142 7.95254 9.50066 10 6.76021 8.28337 10 6.92301 8.17293 9.59458 10 7.0858 8.40458 9.90455 10 7.25133 8.66616 10 7.42716 8.72516 10 7.57581 9.08713 10 7.75681 9.27726 10 7.92471 9.33788 10 8.08593 9.42934 10 8.24333 9.65388 10 8.41627 9.90831 10 8.6018 9.95149 10 8.77636 10 8.95747 10 9.12201 10 9.31379 10 9.46023 10 9.65197 10 9.78636 10 9.97404 10 7 7.20699 7.41221 7.56669 7.79832 8.08459 8.28657 8.49779 8.72424 8.97535 9.17825 9.36744 9.56731 9.77959 9.94276 10 
</DataArray>

</PointData>
<CellData Scalars=" CellData">
<DataArray type="Float32" Name="radius" NumberOfComponents="1" format="ascii" >
0.138047 0.0465364 0.0469442 0.0467592 0.0415628 0.0553089 0.0454944 0.0455445 0.053007 0.0499801 0.0499485 0.0541913 0.0486872 0.0519842 0.0516231 0.0458002 0.0412245 0.0479646 0.0457859 0.0503062 0.0472453 0.0444833 0.0510881 0.041263 0.0525339 0.0532511 0.126587 
</DataArray>
<DataArray type="Float32" Name="subType" NumberOfComponents="1" format="ascii" >
1 2 2 2 2 2 2 2 2 2 2 2 2 2 2 2 2 2 2 2 2 2 2 2 2 2 4 
</DataArray>
<DataArray type="Float32" Name="creationTime" NumberOfComponents="1" format="ascii" >
0 5.95558 6.10704 6.25254 6.42212 6.59142 6.76021 6.92301 7.0858 7.25133 7.42716 7.57581 7.75681 7.92471 8.08593 8.24333 8.41627 8.6018 8.77636 8.95747 9.12201 9.31379 9.46023 9.65197 9.78636 9.97404 7 
</DataArray>

</CellData>
<Points>
<DataArray type="Float32" Name="Coordinates" NumberOfComponents="3" format="ascii" >
0 0 -3 0.480419 -0.193686 -3.06488 0.905999 -0.304189 -3.17278 1.31267 -0.387288 -3.29864 1.78074 -0.527977 -3.42182 2.24281 -0.668765 -3.55705 2.69103 -0.81419 -3.71985 3.12104 -0.941759 -3.88894 3.54919 -1.06942 -4.05855 3.97773 -1.21214 -4.23372 4.44142 -1.35303 -4.40193 4.83346 -1.46799 -4.54342 5.31608 -1.55265 -4.73151 5.75973 -1.63492 -4.91015 6.18279 -1.72197 -5.08119 6.57849 -1.82685 -5.27335 6.97054 -1.97542 -5.5371 7.38956 -2.08802 -5.84081 7.79747 -2.2077 -6.09764 8.22899 -2.32374 -6.35079 8.5885 -2.48018 -6.60096 9.02462 -2.64031 -6.87685 9.35247 -2.75439 -7.0974 9.78092 -2.90425 -7.38394 10.0811 -3.00828 -7.58344 10.4873 -3.13128 -7.88786 10.8765 -3.24155 -8.12664 11.3371 -3.32826 -8.41551 11.763 -3.31502 -8.71651 12.1415 -3.3116 -8.99533 12.5223 -3.30699 -9.29197 12.9375 -3.29092 -9.6388 13.2905 -3.32463 -9.97119 13.6135 -3.35704 -10.2737 14.0079 -3.40112 -10.6447 14.3727 -3.43256 -11.016 14.7561 -3.36649 -11.4149 15.049 -3.28638 -11.7843 15.3361 -3.20034 -12.1768 15.6273 -3.06726 -12.6161 15.9614 -3.03262 -13.0839 16.2701 -2.99809 -13.5309 16.5283 -3.02287 -13.9434 16.7816 -3.0671 -14.3616 17.0269 -3.13569 -14.7577 17.2992 -3.19228 -15.2025 17.5601 -3.24717 -15.6294 17.7726 -3.29749 -16.0362 17.9628 -3.38751 -16.5023 18.1008 -3.45422 -16.9994 18.1833 -3.47526 -17.4185 18.2724 -3.47227 -17.8731 18.3978 -3.45885 -18.3945 18.5196 -3.44668 -18.8525 18.6538 -3.43374 -19.354 18.7622 -3.42642 -19.8595 18.9001 -3.45401 -20.3902 18.9889 -3.48421 -20.8237 19.1335 -3.53956 -21.3501 19.2167 -3.59642 -21.7289 19.3262 -3.65966 -22.2005 19.4578 -3.73306 -22.7632 19.5162 -3.7656 -23.0205 0.480419 -0.193686 -3.06488 0.47049 -0.849368 -2.3099 0.426282 -1.52955 -1.57819 0.409961 -2.21563 -0.992111 0.905999 -0.304189 -3.17278 0.914121 0.487781 -3.78328 0.896314 1.28107 -4.39187 0.766925 1.85838 -4.76715 1.31267 -0.387288 -3.29864 1.97233 -0.183034 -2.57536 2.66297 0.0807098 -1.90198 3.05325 0.291289 -1.52085 1.78074 -0.527977 -3.42182 1.26249 -0.924294 -4.17968 0.736689 -1.29934 -4.94314 0.638606 -1.36214 -5.07248 2.24281 -0.668765 -3.55705 2.2499 0.00201141 -4.29867 2.36342 0.74926 -4.95345 2.41752 0.972733 -5.13725 2.69103 -0.81419 -3.71985 3.25037 -0.408746 -2.99682 3.75343 0.0862891 -2.30046 3.12104 -0.941759 -3.88894 2.93797 -1.43453 -4.73962 2.79374 -1.99751 -5.55341 2.76992 -2.15913 -5.75686 3.54919 -1.06942 -4.05855 3.63626 -0.0733105 -4.04497 3.69493 0.924936 -4.03717 3.69893 0.983913 -4.03727 3.97773 -1.21214 -4.23372 4.67139 -0.521222 -4.43736 5.34706 -0.0452636 -4.57857 4.44142 -1.35303 -4.40193 4.63315 -0.716393 -3.65498 4.84639 -0.19087 -2.99331 4.83346 -1.46799 -4.54342 5.19808 -0.566623 -4.30977 5.38717 -0.0631269 -4.20413 5.31608 -1.55265 -4.73151 5.51562 -2.19021 -3.98741 5.60113 -2.49002 -3.68452 5.75973 -1.63492 -4.91015 5.99957 -0.664111 -4.90645 6.10256 -0.248051 -4.90545 6.18279 -1.72197 -5.08119 6.01106 -2.14621 -5.97031 5.94589 -2.30612 -6.31956 6.57849 -1.82685 -5.27335 7.0916 -1.93337 -4.42166 7.20376 -1.95856 -4.22534 6.97054 -1.97542 -5.5371 6.43385 -2.29174 -6.31935 6.40281 -2.30999 -6.36432 7.38956 -2.08802 -5.84081 7.73091 -2.59842 -5.05152 7.74222 -2.61544 -5.02467 7.79747 -2.2077 -6.09764 7.80163 -1.60525 -6.61635 8.22899 -2.32374 -6.35079 8.04666 -2.44847 -6.90228 8.5885 -2.48018 -6.60096 8.98236 -2.52637 -6.09101 9.02462 -2.64031 -6.87685 8.99112 -3.14814 -6.82722 9.35247 -2.75439 -7.0974 9.58717 -2.85875 -6.80516 9.78092 -2.90425 -7.38394 9.99509 -2.94007 -7.18578 10.0811 -3.00828 -7.58344 10.2197 -2.94777 -7.50038 10.4873 -3.13128 -7.88786 10.4805 -3.13007 -7.90542 0 0 -3 0.49678 -0.118281 -3.05335 0.981037 -0.262454 -3.10219 1.34895 -0.348231 -3.15263 1.89351 -0.499151 -3.22693 2.55904 -0.679828 -3.35731 3.02635 -0.815418 -3.4397 3.50414 -0.98485 -3.52813 3.98913 -1.20449 -3.66622 4.52971 -1.41065 -3.85276 4.94613 -1.58182 -4.04514 5.343 -1.69298 -4.23863 5.76131 -1.80261 -4.44618 6.20565 -1.91514 -4.66522 6.55369 -1.98448 -4.82563 6.67771 -2.00919 -4.87678 
</DataArray>
</Points>
<Lines>
<DataArray type="Int32" Name="connectivity" NumberOfComponents="1" format="ascii" >
0 1 2 3 4 5 6 7 8 9 10 11 12 13 14 15 16 17 18 19 20 21 22 23 24 25 26 27 28 29 30 31 32 33 34 35 36 37 38 39 40 41 42 43 44 45 46 47 48 49 50 51 52 53 54 55 56 57 58 59 60 61 62 63 64 65 66 67 68 69 70 71 72 73 74 75 76 77 78 79 80 81 82 83 84 85 86 87 88 89 90 91 92 93 94 95 96 97 98 99 100 101 102 103 104 105 106 107 108 109 110 111 112 113 114 115 116 117 118 119 120 121 122 123 124 125 126 127 128 129 130 131 132 133 134 135 136 137 138 139 140 141 142 143 144 145 146 147 148 149 150 151 152 
</DataArray>
<DataArray type="Int32" Name="offsets" NumberOfComponents="1" format="ascii" >
63 67 71 75 79 83 86 90 94 97 100 103 106 109 112 115 118 121 123 125 127 129 131 133 135 137 153 
</DataArray>

</Lines>
</Piece>
</PolyData>
</VTKFile>
