<?xml version="1.0"?><VTKFile type="PolyData" version="0.1" byte_order="LittleEndian">
<PolyData>
<Piece NumberOfLines="1" NumberOfPoints="8">
<PointData Scalars=" PointData">
<DataArray type="Float32" Name="time" NumberOfComponents="1" format="ascii" >
0 2.94076 3.47928 4.02066 4.56495 5.11218 5.66237 6 
</DataArray>

</PointData>
<CellData Scalars=" CellData">
<DataArray type="Float32" Name="radius" NumberOfComponents="1" format="ascii" >
0.0115 
</DataArray>
<DataArray type="Float32" Name="subType" NumberOfComponents="1" format="ascii" >
1 
</DataArray>
<DataArray type="Float32" Name="creationTime" NumberOfComponents="1" format="ascii" >
0 
</DataArray>

</CellData>
<Points>
<DataArray type="Float32" Name="Coordinates" NumberOfComponents="3" format="ascii" >
0 0 -3 0.0152795 -0.0126528 -3.9998 0.0171868 -0.00640123 -4.17968 0.0204128 -0.00394854 -4.35964 0.0244813 0.00264401 -4.53947 0.0241452 0.0144449 -4.71908 0.0213742 0.0159159 -4.89906 0.0187225 0.0162646 -5.009 
</DataArray>
</Points>
<Lines>
<DataArray type="Int32" Name="connectivity" NumberOfComponents="1" format="ascii" >
0 1 2 3 4 5 6 7 
</DataArray>
<DataArray type="Int32" Name="offsets" NumberOfComponents="1" format="ascii" >
8 
</DataArray>

</Lines>
</Piece>
</PolyData>
</VTKFile>
