<?xml version="1.0"?><VTKFile type="PolyData" version="0.1" byte_order="LittleEndian">
<PolyData>
<Piece NumberOfLines="32" NumberOfPoints="950">
<PointData Scalars=" PointData">
<DataArray type="Float32" Name="time" NumberOfComponents="1" format="ascii" >
0 0.11387 0.228208 0.343019 0.359292 0.474648 0.590486 0.607863 0.724258 0.841144 0.958524 1.0157 1.13382 1.25245 1.34771 1.45855 1.57857 1.69912 1.73985 1.8611 1.98289 2.1052 2.22806 2.35147 2.47543 2.59994 2.61495 2.74009 2.8658 2.99208 3.11894 3.23184 3.3598 3.48836 3.52564 3.65497 3.7849 3.91544 4.0466 4.17838 4.25148 4.38423 4.51763 4.60701 4.74148 4.87661 5.0124 5.14886 5.28599 5.35663 5.4948 5.63365 5.7732 5.80156 5.94196 6 0 0.113783 0.22786 0.342233 0.456902 0.571871 0.687139 0.80271 0.918584 1.03476 1.07131 1.1879 1.30479 1.42199 1.52824 1.64604 1.76415 1.88258 2.00133 2.1204 2.22169 2.34136 2.46135 2.58167 2.70231 2.82329 2.9446 3.06624 3.17826 3.30055 3.42318 3.54615 3.66947 3.79313 3.91714 4.0415 4.10098 4.22586 4.35109 4.47668 4.60262 4.72893 4.77375 4.90054 5.02771 5.05881 5.18643 5.31442 5.44279 5.57152 5.70064 5.7014 5.83089 5.96077 6 0 0.113758 0.227761 0.342009 0.456504 0.571247 0.665016 0.780211 0.895656 1.01135 1.1273 1.13022 1.24643 1.36289 1.47962 1.5966 1.71383 1.83133 1.92731 2.04529 2.16352 2.28202 2.40079 2.51982 2.59096 2.71042 2.83015 2.95015 3.07042 3.10367 3.22429 3.34519 3.46636 3.58781 3.70954 3.83154 3.89678 4.01922 4.14195 4.26495 4.38825 4.51183 4.55295 4.67691 4.80117 4.92571 5.05055 5.17569 5.28924 5.41494 5.54094 5.58732 5.71373 5.84044 5.96746 5.98562 6 2.03986 2.69094 3.40049 4.18005 5.04497 6 2.51733 3.19557 4.00903 4.29537 5.39626 5.84984 6 5.27039 6 3.33571 3.99645 4.74087 5.59327 5.73259 6 5.73259 6 4.01733 4.66815 5.3768 6 4.54408 5.18736 5.87023 6 5.35919 6 0 0.113833 0.22806 0.342685 0.457709 0.573137 0.68897 0.805211 0.921864 0.970695 1.08794 1.2056 1.32368 1.42711 1.54599 1.5796 1.69903 1.8189 1.9392 2.05994 2.18113 2.30277 2.40597 2.52844 2.65137 2.77475 2.8986 3.02292 3.14771 3.20537 3.33085 3.45681 3.58326 3.71019 3.83761 3.96553 4.05969 4.18847 4.31776 4.44756 4.46965 4.60005 4.73097 4.86241 4.99437 5.12687 5.15397 5.28711 5.42079 5.55501 5.62244 5.75749 5.80181 5.9376 6 0 0.113797 0.17171 0.285994 0.400604 0.515541 0.630806 0.746403 0.862333 0.951237 1.06776 1.18462 1.30182 1.41936 1.53725 1.65548 1.77406 1.87236 1.99159 2.11116 2.2311 2.35139 2.44337 2.5643 2.68559 2.80725 2.92928 2.9943 3.11689 3.23986 3.36321 3.48694 3.61105 3.73554 3.86042 3.90509 4.03049 4.15629 4.26954 4.39609 4.52303 4.65038 4.77388 4.90203 5.03059 5.15955 5.28894 5.41874 5.54895 5.6796 5.68567 5.81676 5.94827 6 0 0.113794 0.227904 0.342332 0.357963 0.472754 0.587868 0.703304 0.819066 0.935156 1.01854 1.13519 1.25218 1.3695 1.38321 1.50091 1.61895 1.73732 1.85604 1.97243 2.09183 2.21158 2.33168 2.37831 2.49889 2.61984 2.74114 2.8628 2.98482 3.1072 3.22995 3.25222 3.37541 3.49896 3.62289 3.7472 3.87188 3.99694 4.12238 4.24821 4.32962 4.45609 4.58294 4.71019 4.83783 4.96588 5.09432 5.17194 5.30103 5.43052 5.56043 5.69075 5.72033 5.85116 5.98241 6 0 0.113844 0.228104 0.342785 0.457888 0.573418 0.689376 0.805768 0.922595 0.971011 1.08846 1.20635 1.31402 1.43277 1.55197 1.67163 1.79175 1.91233 2.03338 2.13952 2.26146 2.38387 2.50677 2.63016 2.71593 2.84015 2.96486 3.09007 3.14946 3.27541 3.40188 3.52886 3.65636 3.78439 3.84648 3.97528 4.10463 4.23451 4.36493 4.40442 4.53555 4.66724 4.79949 4.9323 5.04011 5.17395 5.30837 5.44337 5.57895 5.71513 5.77105 5.90807 6 0 0.114037 0.228882 0.283111 0.399165 0.516057 0.612536 0.730983 0.850303 0.970509 0.999397 1.12072 1.24295 1.36612 1.49023 1.6153 1.72684 1.85376 1.98168 2.11061 2.24058 2.3716 2.4418 2.46383 2.59667 2.73062 2.86568 3.00188 3.13923 3.27776 3.41748 3.55842 3.69617 3.83957 3.98424 4.02312 4.16945 4.31712 4.46614 4.61655 4.76836 4.92162 5.04483 5.20074 5.35815 5.51712 5.57879 5.73994 5.84194 6 0 0.113748 0.22772 0.341917 0.45634 0.57099 0.685867 0.800973 0.916308 1.03187 1.06057 1.17643 1.29251 1.40883 1.52539 1.52546 1.64225 1.75928 1.80232 1.91967 2.03726 2.15509 2.27316 2.39147 2.51002 2.52216 2.64098 2.76004 2.87936 2.9775 3.09726 3.21727 3.2864 3.4068 3.52746 3.53651 3.65744 3.77861 3.8492 3.97078 4.09262 4.21471 4.33707 4.45968 4.58255 4.70568 4.74655 4.87003 4.99378 5.11779 5.18971 5.31414 5.43885 5.56382 5.68906 5.81457 5.94036 6 0 0.0313291 0.145089 0.259008 0.373017 0.487256 0.601657 0.716218 0.819411 0.93428 1.04931 1.16451 1.23795 1.35342 1.46904 1.58483 1.70079 1.81691 1.9332 2.04966 2.1432 2.25995 2.37688 2.49397 2.61123 2.72866 2.84626 2.96404 2.99669 3.11468 3.23284 3.35117 3.46968 3.4927 3.61142 3.7303 3.84936 3.9686 3.98507 4.10451 4.22412 4.3439 4.46387 4.58401 4.70433 4.82482 4.84532 4.96602 5.08691 5.20798 5.32922 5.45065 5.51319 5.63489 5.75678 5.87885 6 0 0.11391 0.228371 0.343389 0.458968 0.575115 0.691835 0.809133 0.927016 1.04549 1.16456 1.28423 1.40451 1.5254 1.64692 1.76906 1.89184 1.92668 2.05028 2.17453 2.20404 2.3291 2.45483 2.58123 2.7083 2.83606 2.84217 2.97066 3.09985 3.22975 3.36036 3.46732 3.59925 3.73193 3.86536 3.99954 4.13449 4.23857 4.37489 4.512 4.64991 4.78863 4.87234 5.01237 5.15324 5.29495 5.43752 5.58095 5.72525 5.80744 5.95313 6 0 0.113832 0.228057 0.342677 0.457696 0.573116 0.68894 0.805171 0.921811 1.03886 1.09831 1.17839 1.29636 1.41474 1.53356 1.6528 1.77247 1.89258 2.01312 2.1341 2.15238 2.27387 2.39582 2.51821 2.64106 2.76437 2.88813 2.90466 3.02896 3.04216 3.16698 3.29226 3.41802 3.54426 3.67099 3.74837 3.87588 4.00388 4.13238 4.26139 4.39089 4.52091 4.65143 4.6815 4.81266 4.94435 5.07656 5.2093 5.34258 5.4764 5.61076 5.6123 5.74721 5.88268 6 0 0.0260343 0.139938 0.25421 0.368854 0.48387 0.599263 0.616236 0.732063 0.848271 0.964863 0.992597 1.10967 1.22713 1.34498 1.38604 1.50443 1.62321 1.74239 1.86198 1.98197 2.02673 2.08742 2.20819 2.32937 2.45096 2.57297 2.69541 2.78513 2.90831 3.03192 3.15596 3.28044 3.40536 3.53072 3.55833 3.68423 3.81059 3.93741 4.06468 4.19241 4.27132 4.3998 4.52875 4.65818 4.78807 4.91845 5.04932 5.18067 5.30255 5.43484 5.56764 5.70093 5.83473 5.96904 6 0 0.113735 0.227669 0.341803 0.456136 0.570669 0.674853 0.789771 0.904893 0.972243 1.08769 1.20334 1.31919 1.43525 1.47384 1.59017 1.70672 1.82347 1.82881 1.94578 2.06297 2.08512 2.20255 2.32019 2.43804 2.55611 2.67439 2.73491 2.85352 2.90572 3.02464 3.14377 3.26312 3.3827 3.50249 3.6225 3.74273 3.83023 3.95085 4.07169 4.19275 4.31404 4.34569 4.3457 4.46727 4.58907 4.7111 4.83335 4.95584 4.96239 5.08511 5.20807 5.31059 5.43398 5.5576 5.68145 5.74572 5.86993 5.99438 6 0 0.113785 0.227868 0.342252 0.456936 0.571924 0.687217 0.748538 0.8643 0.980371 1.09675 1.21345 1.33045 1.44778 1.56542 1.63807 1.75623 1.87471 1.99351 2.11263 2.23209 2.35187 2.47198 2.59243 2.68767 2.80871 2.93009 3.04303 3.16507 3.28745 3.41018 3.53325 3.65668 3.76344 3.88752 4.01195 4.13674 4.26189 4.3874 4.45232 4.57839 4.70481 4.83161 4.88761 5.01494 5.14265 5.27073 5.39919 5.42974 5.55867 5.64469 5.77426 5.90421 6 5.98525 6 0 0.113733 0.22766 0.341781 0.433675 0.548148 0.662817 0.777684 0.892747 1.00801 1.12347 1.16387 1.2796 1.39554 1.51167 1.628 1.74454 1.86128 1.97822 2.00505 2.12224 2.23965 2.24823 2.36586 2.48369 2.60173 2.71997 2.83843 2.86063 2.97934 3.09826 3.21739 3.33673 3.45628 3.47196 3.59176 3.71177 3.832 3.95244 4.0731 4.1658 4.28684 4.31552 4.43684 4.55837 4.62138 4.74325 4.86535 4.98767 5.11021 5.23298 5.34317 5.46637 5.58979 5.71345 5.83733 5.96144 5.97898 6 2.7957 3.46474 4.24091 4.6524 4.74955 5.78756 6 3.24794 3.90289 3.93031 4.65655 5.46773 6 3.93031 5.39809 6 4.00969 4.66708 5.39913 6 4.88766 5.53721 6 5.14157 5.80535 6 5.78117 6 
</DataArray>

</PointData>
<CellData Scalars=" CellData">
<DataArray type="Float32" Name="radius" NumberOfComponents="1" format="ascii" >
0.05 0.05 0.05 0.03 0.03 0.02 0.03 0.02 0.03 0.03 0.03 0.05 0.05 0.05 0.05 0.05 0.05 0.05 0.05 0.05 0.05 0.05 0.05 0.03 0.05 0.03 0.03 0.02 0.03 0.03 0.03 0.03 
</DataArray>
<DataArray type="Float32" Name="subType" NumberOfComponents="1" format="ascii" >
1 4 4 2 2 3 2 3 2 2 2 4 4 4 4 4 4 4 4 4 4 4 4 2 4 2 2 3 2 2 2 2 
</DataArray>
<DataArray type="Float32" Name="creationTime" NumberOfComponents="1" format="ascii" >
0 0 0 2.03986 2.51733 5.27039 3.33571 5.73259 4.01733 4.54408 5.35919 0 0 0 0 0 0 0 0 0 0 0 0 5.98525 0 2.7957 3.24794 3.93031 4.00969 4.88766 5.14157 5.78117 
</DataArray>

</CellData>
<Points>
<DataArray type="Float32" Name="Coordinates" NumberOfComponents="3" format="ascii" >
0 0 -3 0.045693 0.189515 -3.15651 0.0639933 0.369256 -3.32931 0.051974 0.526 -3.5237 0.0518527 0.547997 -3.55137 -0.0405238 0.690181 -3.73508 -0.13241 0.846322 -3.90735 -0.146541 0.869724 -3.93289 -0.2359 1.03816 -4.09458 -0.325481 1.20728 -4.25544 -0.434288 1.38672 -4.39132 -0.469958 1.50022 -4.41539 -0.572283 1.72115 -4.47214 -0.668429 1.9463 -4.52277 -0.745628 2.12665 -4.5617 -0.830366 2.33565 -4.61533 -0.994472 2.471 -4.74668 -1.2105 2.4317 -4.86622 -1.27376 2.427 -4.92163 -1.47194 2.43219 -5.07394 -1.64277 2.43066 -5.25646 -1.82249 2.42404 -5.43012 -2.02331 2.41879 -5.57893 -2.20898 2.40057 -5.74534 -2.3943 2.35073 -5.90557 -2.52296 2.32079 -6.11782 -2.53913 2.31638 -6.14277 -2.61937 2.3574 -6.37597 -2.70652 2.40433 -6.60554 -2.75897 2.51821 -6.82183 -2.77218 2.61103 -7.05358 -2.822 2.6236 -7.26909 -2.89162 2.63269 -7.50902 -2.94888 2.61366 -7.75163 -2.96125 2.60885 -7.8227 -3.0237 2.58222 -8.06331 -3.09042 2.57035 -8.30395 -3.10394 2.57234 -8.55358 -3.12109 2.57724 -8.80294 -3.10001 2.67144 -9.03355 -3.0872 2.7029 -9.16747 -3.06325 2.74326 -9.41303 -2.99937 2.77683 -9.65239 -3.03106 2.79508 -9.81516 -3.06508 2.8544 -10.0556 -3.08397 2.92153 -10.2957 -3.10373 2.98507 -10.5367 -3.10698 2.99867 -10.7863 -3.09801 3.00273 -11.0361 -3.09111 3.00581 -11.1642 -3.07785 3.01173 -11.4138 -3.06939 3.01198 -11.6636 -3.06589 3.01626 -11.9136 -3.06443 3.02363 -11.9637 -3.06499 3.05764 -12.2113 -3.05682 3.05807 -12.314 0 0 -3 -0.159694 0.065021 -3.18102 -0.218443 0.161582 -3.40402 -0.256187 0.188111 -3.64972 -0.35845 0.17527 -3.87749 -0.460957 0.163164 -4.10518 -0.604159 0.189353 -4.30843 -0.750535 0.215686 -4.50937 -0.873174 0.301435 -4.70964 -1.01971 0.397129 -4.88816 -1.0658 0.429386 -4.94294 -1.1855 0.477247 -5.15714 -1.28699 0.473707 -5.38558 -1.36916 0.424072 -5.61642 -1.3865 0.406718 -5.84115 -1.38083 0.352963 -6.08524 -1.31336 0.279729 -6.31455 -1.23659 0.156868 -6.5183 -1.15722 0.038435 -6.72366 -1.08212 -0.0829939 -6.92888 -1.02307 -0.20005 -7.09568 -0.993592 -0.395485 -7.24876 -0.967258 -0.591891 -7.40118 -0.89695 -0.781119 -7.54866 -1.06151 -0.959463 -7.60877 -1.22653 -1.13838 -7.66585 -1.40776 -1.30852 -7.69248 -1.59318 -1.46373 -7.75595 -1.78719 -1.58314 -7.72725 -1.96728 -1.7529 -7.69191 -2.14735 -1.91332 -7.62602 -2.34534 -2.05878 -7.57975 -2.51566 -2.23726 -7.62017 -2.69377 -2.39109 -7.70451 -2.87801 -2.53887 -7.78647 -2.99086 -2.7442 -7.87367 -3.04278 -2.84296 -7.91599 -3.1529 -3.04892 -8.00518 -3.24497 -3.26181 -8.09845 -3.29615 -3.48899 -8.18939 -3.34734 -3.7157 -8.28149 -3.31932 -3.9337 -8.40063 -3.30685 -4.01076 -8.44238 -3.27389 -4.22178 -8.57232 -3.25108 -4.43887 -8.69418 -3.24598 -4.49194 -8.72391 -3.20197 -4.69089 -8.86875 -3.18188 -4.89195 -9.01596 -3.12671 -5.07988 -9.17132 -3.08894 -5.15622 -9.40637 -3.06027 -5.22527 -9.64493 -3.0601 -5.22568 -9.64632 -3.04817 -5.30909 -9.8817 -3.02065 -5.37724 -10.1207 -3.04116 -5.39568 -10.1908 0 0 -3 -0.112056 -0.218288 -3.04789 -0.27487 -0.406275 -3.07344 -0.478663 -0.524676 -3.1568 -0.691934 -0.637937 -3.22151 -0.879161 -0.770525 -3.32084 -1.04589 -0.87652 -3.37127 -1.15811 -1.04745 -3.51511 -1.26378 -1.24253 -3.63033 -1.39063 -1.4515 -3.6827 -1.55386 -1.61459 -3.77893 -1.55778 -1.6188 -3.78142 -1.73273 -1.78356 -3.85033 -1.91222 -1.93559 -3.935 -2.09087 -2.07667 -4.03834 -2.25651 -2.21714 -4.16216 -2.43045 -2.34176 -4.29146 -2.57669 -2.44014 -4.46875 -2.66155 -2.48677 -4.6481 -2.75605 -2.52237 -4.87679 -2.82778 -2.54324 -5.11537 -2.78996 -2.49998 -5.35868 -2.73284 -2.42269 -5.58947 -2.69107 -2.33929 -5.82142 -2.66716 -2.28763 -5.95928 -2.61356 -2.19208 -6.18399 -2.54963 -2.1103 -6.41143 -2.47852 -2.04394 -6.64173 -2.3742 -1.86923 -6.78697 -2.34575 -1.82113 -6.82747 -2.22594 -1.64514 -6.95852 -2.10462 -1.53157 -7.1453 -1.99842 -1.4535 -7.35772 -1.95217 -1.40432 -7.59844 -1.91918 -1.37637 -7.84467 -2.00961 -1.36861 -8.07761 -2.05168 -1.38779 -8.20279 -2.12343 -1.41047 -8.4412 -2.13845 -1.44658 -8.68812 -2.19509 -1.51052 -8.92308 -2.27058 -1.47797 -9.15917 -2.29977 -1.47452 -9.40744 -2.31908 -1.48947 -9.48682 -2.32741 -1.51591 -9.73528 -2.35225 -1.52324 -9.98393 -2.39709 -1.48187 -10.2264 -2.44996 -1.43145 -10.4655 -2.47156 -1.37324 -10.7076 -2.49702 -1.31 -10.9235 -2.52754 -1.26258 -11.167 -2.55467 -1.21102 -11.4101 -2.56177 -1.19579 -11.5005 -2.51545 -1.08013 -11.7172 -2.47077 -0.967834 -11.9361 -2.41836 -0.81721 -12.1286 -2.4112 -0.796883 -12.157 -2.41028 -0.780852 -12.1803 -1.04589 -0.87652 -3.37127 -0.988557 -0.968263 -3.59665 -0.974667 -1.02844 -3.83891 -0.937938 -1.03744 -4.08603 -0.944135 -1.06028 -4.33491 -0.936998 -1.07128 -4.58062 -1.55778 -1.6188 -3.78142 -1.60189 -1.43959 -3.95006 -1.66735 -1.28571 -4.13589 -1.68167 -1.24121 -4.19685 -1.67536 -1.10101 -4.40375 -1.67304 -1.05383 -4.47438 -1.67232 -1.0393 -4.49606 -1.68167 -1.24121 -4.19685 -1.55806 -1.18804 -4.18274 -2.66155 -2.48677 -4.6481 -2.89118 -2.39184 -4.67561 -3.09361 -2.24594 -4.66025 -3.30001 -2.10613 -4.67899 -3.33133 -2.0864 -4.68518 -3.38905 -2.05335 -4.70566 -3.33133 -2.0864 -4.68518 -3.34623 -2.03974 -4.6687 -2.66716 -2.28763 -5.95928 -2.47092 -2.3205 -6.11064 -2.28369 -2.35631 -6.27239 -2.1373 -2.35325 -6.4119 -2.34575 -1.82113 -6.82747 -2.35965 -1.57714 -6.77477 -2.33958 -1.33134 -6.73377 -2.3359 -1.28633 -6.72618 -2.05168 -1.38779 -8.20279 -1.86955 -1.32942 -8.35991 0 0 -3 -0.11159 -0.223499 -3.00978 -0.177968 -0.414075 -3.15734 -0.257668 -0.579003 -3.32748 -0.351 -0.748644 -3.48563 -0.528017 -0.88781 -3.59425 -0.747708 -0.975768 -3.67486 -0.872919 -1.12435 -3.83217 -1.02533 -1.26482 -3.97195 -1.06324 -1.34402 -4.02841 -1.22033 -1.53848 -4.03133 -1.4216 -1.68675 -4.03384 -1.63527 -1.80903 -3.99034 -1.79917 -1.95019 -4.01944 -1.96667 -2.10876 -4.11588 -2.01024 -2.15598 -4.14491 -2.15619 -2.33134 -4.24712 -2.28581 -2.51086 -4.36319 -2.4139 -2.69071 -4.48044 -2.54639 -2.89074 -4.55069 -2.65562 -3.0842 -4.66532 -2.77533 -3.27285 -4.77749 -2.85608 -3.44682 -4.86638 -3.00103 -3.58679 -5.01436 -3.10518 -3.74644 -5.17611 -3.20479 -3.90297 -5.34367 -3.28939 -4.05405 -5.524 -3.42416 -4.14817 -5.71236 -3.55338 -4.23894 -5.90617 -3.61037 -4.25471 -6.00503 -3.73016 -4.27623 -6.2234 -3.84993 -4.29768 -6.4418 -3.88135 -4.39076 -6.67168 -3.97236 -4.37988 -6.90427 -4.0451 -4.35505 -7.14217 -4.05143 -4.33744 -7.39147 -4.05492 -4.32926 -7.57466 -4.02083 -4.3022 -7.82084 -4.01102 -4.25677 -8.06648 -3.89573 -4.19324 -8.27902 -3.87503 -4.17761 -8.31263 -3.76923 -4.0762 -8.51517 -3.58053 -4.11574 -8.67431 -3.39595 -4.14005 -8.84116 -3.23877 -4.12007 -9.03455 -3.09846 -4.15096 -9.23914 -3.07431 -4.16375 -9.28221 -2.94471 -4.18384 -9.49505 -2.7987 -4.15157 -9.69539 -2.65941 -4.11801 -9.90027 -2.59554 -4.12621 -10.0076 -2.47249 -4.13903 -10.2249 -2.43503 -4.15029 -10.2968 -2.26487 -4.25239 -10.4488 -2.16531 -4.29749 -10.483 0 0 -3 -0.200955 -0.111866 -3.098 -0.297487 -0.179199 -3.1456 -0.494943 -0.293418 -3.2479 -0.698342 -0.416017 -3.32599 -0.900387 -0.541039 -3.40376 -1.04532 -0.712464 -3.51379 -1.14428 -0.904261 -3.63997 -1.25131 -1.05753 -3.80596 -1.32275 -1.16826 -3.94455 -1.43396 -1.19899 -4.16633 -1.50955 -1.23628 -4.40169 -1.5724 -1.23117 -4.64361 -1.68865 -1.19354 -4.86172 -1.77574 -1.18594 -5.09593 -1.85734 -1.17148 -5.3318 -1.93251 -1.14724 -5.569 -1.99649 -1.13707 -5.76527 -2.05407 -1.02052 -5.97881 -2.12546 -0.81395 -6.10019 -2.19013 -0.610448 -6.23021 -2.23987 -0.390767 -6.33868 -2.27199 -0.224902 -6.42705 -2.3256 0.00904042 -6.49703 -2.37742 0.243379 -6.56703 -2.49688 0.454359 -6.62798 -2.61341 0.663114 -6.70108 -2.6768 0.774342 -6.73674 -2.81616 0.924889 -6.87961 -2.95879 1.06674 -7.02805 -3.10461 1.19433 -7.18603 -3.25852 1.32306 -7.33516 -3.42879 1.42077 -7.48996 -3.62068 1.47917 -7.63918 -3.81282 1.55076 -7.78221 -3.87086 1.5678 -7.84781 -4.02467 1.50458 -8.03448 -4.18886 1.48471 -8.22195 -4.29507 1.49481 -8.41935 -4.36644 1.44151 -8.65295 -4.39659 1.2765 -8.83832 -4.39757 1.05064 -8.94549 -4.45247 0.830595 -9.02905 -4.45115 0.596336 -9.11635 -4.43706 0.384638 -9.24858 -4.44019 0.211669 -9.42906 -4.46002 0.0509923 -9.61955 -4.49472 -0.0941867 -9.8201 -4.44165 -0.259469 -10 -4.3765 -0.403737 -10.1935 -4.37441 -0.410148 -10.2029 -4.31648 -0.553888 -10.3991 -4.28469 -0.688511 -10.6074 -4.27526 -0.741455 -10.6894 0 0 -3 -0.0816394 0.233787 -2.96567 -0.154081 0.471494 -2.93832 -0.230991 0.700896 -2.8754 -0.240304 0.733123 -2.86929 -0.309616 0.969338 -2.82572 -0.299024 1.21842 -2.80719 -0.280388 1.46562 -2.83956 -0.232944 1.69924 -2.91487 -0.191112 1.93287 -2.9934 -0.184922 2.09375 -3.07191 -0.166309 2.33738 -3.12479 -0.154356 2.52442 -3.29025 -0.161481 2.65478 -3.50345 -0.160743 2.67127 -3.5275 -0.128947 2.87853 -3.66363 -0.129602 3.08121 -3.80999 -0.200346 3.22205 -4.00405 -0.24053 3.39416 -4.18086 -0.28233 3.5331 -4.37753 -0.255723 3.59981 -4.61699 -0.29954 3.63881 -4.86001 -0.278323 3.74117 -5.08711 -0.283226 3.77764 -5.17671 -0.274287 3.883 -5.40325 -0.239432 3.94328 -5.64336 -0.162596 3.99067 -5.87649 -0.0744435 4.03832 -6.10553 0.0170355 4.08469 -6.33352 0.145744 4.11463 -6.54574 0.244129 4.06435 -6.77 0.260893 4.05554 -6.81112 0.35789 4.01506 -7.03795 0.470941 3.98083 -7.25829 0.618288 3.96503 -7.45963 0.763103 3.955 -7.66317 0.908798 3.95018 -7.86627 1.10263 3.99089 -8.01882 1.29793 4.02074 -8.172 1.36671 4.11649 -8.39246 1.43258 4.18954 -8.52035 1.5853 4.33029 -8.65951 1.76515 4.45763 -8.77758 1.97168 4.52968 -8.89864 2.18169 4.63335 -8.98608 2.38607 4.74316 -9.0792 2.58603 4.84986 -9.18472 2.70546 4.91677 -9.24772 2.803 5.06545 -9.42345 2.89834 5.2129 -9.6014 2.97359 5.36525 -9.78477 3.04876 5.51796 -9.96789 3.07126 5.55297 -10.0063 3.15993 5.72123 -10.1686 3.22666 5.81051 -10.3923 3.23674 5.82411 -10.4212 0 0 -3 -0.23411 0.0392493 -3.07843 -0.462575 0.0869949 -3.16801 -0.690407 0.139253 -3.25668 -0.893551 0.195755 -3.39099 -1.04191 0.274027 -3.57636 -1.17905 0.268638 -3.78532 -1.27843 0.27018 -4.01471 -1.32721 0.297703 -4.25836 -1.35061 0.281834 -4.35775 -1.38712 0.234801 -4.60056 -1.35437 0.21019 -4.84718 -1.30434 0.202168 -5.06895 -1.28624 0.262049 -5.311 -1.28724 0.338038 -5.54917 -1.28754 0.431385 -5.78109 -1.29232 0.519767 -6.0149 -1.27447 0.546273 -6.26285 -1.1867 0.543155 -6.49691 -1.12918 0.570615 -6.7058 -1.04612 0.550641 -6.94075 -0.978744 0.537613 -7.18115 -0.910941 0.521967 -7.42127 -0.938484 0.48174 -7.66647 -0.941998 0.442215 -7.83508 -0.964147 0.38371 -8.07713 -1.01107 0.346527 -8.31986 -1.07593 0.246854 -8.53976 -1.1067 0.208515 -8.64727 -1.04922 0.145146 -8.88218 -1.0575 0.0566113 -9.11583 -1.07835 0.00150878 -9.35879 -1.09826 -0.0556466 -9.60135 -1.09587 -0.113264 -9.84461 -1.07688 -0.136105 -9.96178 -1.02016 -0.116146 -10.2044 -0.978036 -0.101461 -10.4504 -0.948641 -0.0972753 -10.6987 -0.951441 -0.143539 -10.9443 -0.958306 -0.155609 -11.0185 -0.952479 -0.155709 -11.2685 -0.945941 -0.153609 -11.5184 -0.97629 -0.143079 -11.7663 -0.994272 -0.161011 -12.015 -1.01804 -0.152101 -12.2156 -1.01932 -0.134528 -12.4649 -1.02694 -0.109593 -12.7136 -1.04524 -0.197926 -12.9467 -1.06202 -0.369096 -13.1282 -1.02508 -0.472213 -13.3529 -1.00514 -0.499287 -13.4496 -0.955864 -0.571835 -13.6837 -0.941231 -0.611769 -13.8453 0 0 -3 -0.245824 -0.00597427 -2.95489 -0.488059 -0.0527674 -2.91448 -0.602782 -0.0770599 -2.90826 -0.835255 -0.144716 -2.97055 -1.04203 -0.249232 -3.06446 -1.20673 -0.343762 -3.14165 -1.41127 -0.457989 -3.22892 -1.63465 -0.532381 -3.31297 -1.84985 -0.555539 -3.43808 -1.90103 -0.559283 -3.46881 -2.11599 -0.574578 -3.59552 -2.33801 -0.581059 -3.71026 -2.55087 -0.59065 -3.84101 -2.77529 -0.574575 -3.95 -2.94855 -0.498277 -4.11328 -3.09191 -0.425589 -4.26546 -3.27079 -0.356165 -4.42572 -3.47552 -0.216251 -4.45755 -3.68002 -0.0760759 -4.4896 -3.87543 0.0760096 -4.52405 -4.07333 0.180881 -4.63512 -4.17812 0.233922 -4.69778 -4.21113 0.249915 -4.71751 -4.40886 0.344075 -4.83807 -4.59962 0.460259 -4.95039 -4.71717 0.663107 -5.03718 -4.83129 0.860743 -5.13925 -4.86813 1.00288 -5.34158 -4.91215 1.13043 -5.55205 -5.02393 1.3345 -5.64348 -5.12399 1.49445 -5.8075 -5.22023 1.65782 -5.95831 -5.32943 1.82139 -6.11264 -5.44596 1.96598 -6.28001 -5.47246 1.99705 -6.33289 -5.55297 2.14953 -6.51391 -5.62476 2.29558 -6.70369 -5.65054 2.41297 -6.9229 -5.80131 2.53162 -7.08319 -5.87669 2.68845 -7.26269 -5.96206 2.79566 -7.47178 -5.99736 2.87466 -7.65131 -6.07672 2.97768 -7.86483 -6.18666 3.08618 -8.0614 -6.29993 3.19291 -8.25706 -6.33776 3.23292 -8.33609 -6.42801 3.3044 -8.55801 -6.48454 3.35019 -8.69708 -6.56962 3.42309 -8.91077 0 0 -3 -0.140335 -0.193944 -3.07205 -0.253188 -0.379015 -3.1966 -0.466234 -0.501884 -3.24149 -0.648431 -0.672926 -3.2345 -0.841774 -0.825868 -3.19294 -1.03844 -0.979931 -3.18363 -1.21688 -1.15207 -3.21571 -1.39824 -1.32343 -3.23131 -1.56357 -1.47374 -3.34344 -1.60244 -1.51025 -3.37507 -1.73601 -1.64834 -3.53504 -1.84654 -1.78923 -3.7095 -1.85312 -1.95823 -3.89361 -1.83058 -2.10468 -4.09496 -1.83057 -2.10477 -4.09509 -1.85528 -2.24098 -4.30326 -1.88244 -2.38787 -4.50372 -1.88485 -2.44389 -4.57645 -1.85539 -2.5669 -4.79209 -1.74975 -2.65659 -5.00017 -1.62234 -2.81665 -5.14385 -1.45919 -2.91896 -5.30327 -1.32474 -3.00913 -5.49378 -1.23997 -3.03216 -5.72784 -1.2297 -3.03416 -5.75116 -1.03153 -3.12142 -5.87611 -0.898396 -3.13445 -6.08731 -0.809872 -3.14725 -6.32076 -0.732407 -3.15387 -6.51074 -0.6702 -3.06896 -6.7375 -0.699513 -3.00696 -6.97791 -0.713503 -2.95441 -7.111 -0.759786 -2.85782 -7.33689 -0.778935 -2.77762 -7.5729 -0.779226 -2.7709 -7.5904 -0.753335 -2.69394 -7.82684 -0.680004 -2.58168 -8.03784 -0.648511 -2.51482 -8.16305 -0.567455 -2.37354 -8.3527 -0.465378 -2.21776 -8.51947 -0.349768 -2.02121 -8.62195 -0.264648 -1.82792 -8.75572 -0.212371 -1.65108 -8.92452 -0.117099 -1.475 -9.07426 -0.000994128 -1.34837 -9.25587 0.0467301 -1.32012 -9.31744 0.188898 -1.23958 -9.50665 0.326052 -1.26302 -9.71435 0.452024 -1.32084 -9.92241 0.520788 -1.35101 -10.0461 0.645371 -1.39576 -10.2582 0.771313 -1.43905 -10.4698 0.871757 -1.46935 -10.6967 0.970165 -1.51935 -10.921 1.12633 -1.58397 -11.1052 1.25127 -1.57662 -11.3217 1.3098 -1.5752 -11.4245 0 0 -3 0.0479525 0.0472352 -3.01477 0.190709 0.244513 -2.95818 0.344785 0.435458 -2.91022 0.536713 0.566276 -2.81816 0.741694 0.705391 -2.78455 0.90724 0.891634 -2.80474 1.06362 1.08116 -2.85083 1.2188 1.24385 -2.84556 1.32228 1.46881 -2.87995 1.4445 1.65552 -2.99266 1.64282 1.7703 -3.09265 1.75905 1.86715 -3.14223 1.92417 2.05168 -3.17664 2.11606 2.19961 -3.23826 2.33915 2.31243 -3.23857 2.52866 2.45842 -3.16595 2.74285 2.57695 -3.11526 2.94704 2.71949 -3.09304 3.1356 2.88099 -3.06366 3.2884 3.00801 -3.03653 3.473 3.17526 -3.01531 3.6709 3.32802 -3.0155 3.90182 3.41563 -3.05422 4.10621 3.47697 -3.18446 4.31957 3.44471 -3.3107 4.52449 3.36886 -3.43217 4.7385 3.29362 -3.53724 4.80025 3.28077 -3.56583 5.02118 3.23177 -3.67207 5.20785 3.20019 -3.83533 5.3417 3.09386 -4.01776 5.44766 2.96956 -4.20703 5.46858 2.94379 -4.24243 5.60763 2.86634 -4.43521 5.75046 2.78171 -4.62213 5.88888 2.71888 -4.8206 5.9948 2.66619 -5.04084 6.00988 2.66131 -5.0715 6.04356 2.60722 -5.31324 6.08873 2.54714 -5.55167 6.13353 2.50332 -5.79369 6.17365 2.45751 -6.03616 6.17674 2.43326 -6.28496 6.14833 2.40824 -6.53208 6.10468 2.40237 -6.77817 6.09887 2.39753 -6.81997 6.07999 2.37025 -7.06776 6.11768 2.3495 -7.31403 6.17269 2.31358 -7.55524 6.19875 2.2827 -7.80196 6.30237 2.36088 -8.01562 6.31229 2.40344 -8.13658 6.42654 2.49404 -8.33966 6.54532 2.5417 -8.55441 6.64713 2.61583 -8.77038 6.76269 2.68216 -8.97925 0 0 -3 0.223904 0.102835 -2.95767 0.456119 0.194842 -2.94714 0.681571 0.302851 -2.94942 0.911419 0.391697 -2.99157 1.14118 0.480987 -3.03325 1.3709 0.56991 -3.07595 1.60014 0.650123 -3.13523 1.74228 0.792727 -3.28342 1.82925 0.952591 -3.45482 1.92589 1.12753 -3.60502 2.05868 1.23117 -3.78974 2.19196 1.31161 -3.98537 2.37442 1.38915 -4.13766 2.53174 1.47753 -4.31069 2.66669 1.58161 -4.4936 2.79897 1.67651 -4.68333 2.83605 1.70712 -4.73517 2.96539 1.80479 -4.92552 3.09562 1.89761 -5.11767 3.12354 1.91826 -5.16562 3.2966 1.99126 -5.3306 3.47613 1.99227 -5.50458 3.61475 2.01262 -5.71163 3.75165 2.03459 -5.91966 3.85461 2.01021 -6.14617 3.85888 2.00886 -6.15721 3.95001 1.97876 -6.38805 3.99422 1.93588 -6.63035 4.02468 1.94495 -6.87832 4.03153 1.98435 -7.1251 4.04508 2.04732 -7.31833 4.05937 2.12512 -7.55548 4.03784 2.15203 -7.8031 4.01154 2.14314 -8.05155 3.981 2.15127 -8.29955 3.94249 2.14712 -8.54653 3.95435 2.08906 -8.72898 3.96655 2.03172 -8.97201 3.98067 1.99631 -9.21909 3.9891 1.99424 -9.46893 4.0123 1.94184 -9.71228 4.01574 1.90463 -9.8577 4.0128 1.83918 -10.099 4.01238 1.77514 -10.3406 3.96364 1.77245 -10.5858 3.90302 1.73128 -10.8248 3.92017 1.69456 -11.0715 3.9931 1.74905 -11.3044 4.02813 1.75769 -11.4414 4.12363 1.80132 -11.6683 4.14915 1.80113 -11.7442 0 0 -3 -0.198566 0.133123 -3.07314 -0.393709 0.28716 -3.09945 -0.624491 0.375517 -3.1373 -0.840594 0.423676 -3.2534 -1.06972 0.514779 -3.29464 -1.2998 0.602192 -3.33849 -1.54026 0.663172 -3.36948 -1.77256 0.753979 -3.35241 -2.00011 0.838826 -3.41177 -2.11633 0.882833 -3.43605 -2.2659 0.947972 -3.48465 -2.41262 1.03546 -3.66718 -2.54573 1.14238 -3.84981 -2.71116 1.23798 -4.01103 -2.86527 1.35457 -4.16964 -2.99809 1.47062 -4.34681 -3.10233 1.60611 -4.52923 -3.15073 1.78717 -4.69468 -3.16773 1.96195 -4.87262 -3.17115 1.98765 -4.89996 -3.22234 2.14604 -5.08649 -3.25225 2.3222 -5.26135 -3.2803 2.49281 -5.44191 -3.26807 2.62618 -5.65301 -3.3214 2.70952 -5.8826 -3.42122 2.78847 -6.09778 -3.43395 2.79504 -6.12786 -3.47102 2.84243 -6.37051 -3.47484 2.84665 -6.3964 -3.58739 2.84697 -6.61963 -3.66678 2.85017 -6.85667 -3.711 2.87291 -7.10168 -3.77176 2.87917 -7.3441 -3.78397 2.90855 -7.59207 -3.79327 2.92185 -7.74339 -3.82867 2.92143 -7.99087 -3.86509 2.92211 -8.2382 -3.9032 2.97096 -8.4804 -3.93636 3.01967 -8.72336 -4.03955 3.07155 -8.94508 -4.09363 3.0154 -9.18262 -4.13151 2.95199 -9.42146 -4.13736 2.94706 -9.47839 -4.22546 2.8065 -9.66542 -4.33645 2.65992 -9.83482 -4.42755 2.51754 -10.019 -4.58126 2.40021 -10.1775 -4.72428 2.3082 -10.3607 -4.87827 2.25877 -10.5514 -5.03426 2.21838 -10.7425 -5.03606 2.21796 -10.7447 -5.20165 2.168 -10.9252 -5.35715 2.10654 -11.1111 -5.47497 2.03368 -11.2764 0 0 -3 0.00997158 0.0529498 -3.01936 0.0115541 0.294158 -3.08506 0.0661768 0.511523 -3.19582 0.111965 0.71382 -3.33539 0.149848 0.898255 -3.49986 0.198196 1.02723 -3.70849 0.206622 1.04699 -3.73825 0.254262 1.14962 -3.96118 0.23218 1.24748 -4.19017 0.230571 1.34304 -4.42118 0.234272 1.36706 -4.47532 0.301611 1.48727 -4.68393 0.386355 1.54811 -4.91112 0.434581 1.57982 -5.15437 0.448232 1.58228 -5.24017 0.482865 1.59497 -5.48743 0.5055 1.53548 -5.72919 0.516141 1.4935 -5.97541 0.499581 1.41374 -6.21177 0.519845 1.31739 -6.44156 0.53107 1.27549 -6.52387 0.549797 1.23516 -6.64173 0.590253 1.16701 -6.87884 0.676984 1.06489 -7.0899 0.633181 0.935441 -7.29925 0.620761 0.80241 -7.51055 0.579783 0.661034 -7.71262 0.600261 0.553425 -7.85878 0.628921 0.412704 -8.06341 0.69157 0.314552 -8.28464 0.682774 0.226209 -8.51835 0.639521 0.154888 -8.75402 0.596793 0.0835017 -8.98977 0.564883 0.00595112 -9.22529 0.562978 -0.00911484 -9.27807 0.534695 -0.155704 -9.4786 0.537698 -0.296282 -9.68531 0.533159 -0.44413 -9.88685 0.538232 -0.577296 -10.0984 0.516508 -0.711443 -10.3082 0.50388 -0.784797 -10.443 0.520561 -0.946922 -10.6326 0.539466 -1.0863 -10.8393 0.5571 -1.21881 -11.0505 0.578527 -1.33362 -11.2716 0.503648 -1.47889 -11.4608 0.429583 -1.6412 -11.6359 0.355998 -1.78137 -11.8294 0.259228 -1.88363 -12.0127 0.175441 -2.00089 -12.217 0.114675 -1.99963 -12.4595 0.042447 -2.00211 -12.6988 -0.0609198 -2.04079 -12.9231 -0.122457 -2.17507 -13.1248 -0.13873 -2.20352 -13.172 0 0 -3 0.00639545 -0.233155 -3.08999 0.000822429 -0.453623 -3.20773 0.0118419 -0.682544 -3.3076 0.0539446 -0.890915 -3.43916 0.0334082 -1.08122 -3.59998 0.000146123 -1.1955 -3.7933 -0.0419846 -1.31318 -4.00982 -0.04456 -1.43895 -4.22586 -0.0463725 -1.51208 -4.35228 -0.0399008 -1.64914 -4.56126 -0.0208314 -1.81348 -4.74868 -0.00260413 -1.97484 -4.93877 0.00396783 -2.12657 -5.13735 0.0078475 -2.18471 -5.19649 0.0389982 -2.34875 -5.38256 -0.0496321 -2.49478 -5.5651 -0.165508 -2.65445 -5.71865 -0.170726 -2.66149 -5.726 -0.306318 -2.816 -5.86827 -0.441797 -2.97332 -6.00755 -0.467345 -3.00332 -6.03354 -0.597118 -3.13831 -6.19918 -0.778698 -3.19453 -6.36156 -0.938592 -3.22983 -6.55047 -1.05202 -3.20511 -6.77188 -1.19263 -3.21327 -6.97843 -1.27119 -3.21936 -7.07897 -1.40677 -3.24193 -7.2878 -1.46148 -3.26075 -7.38122 -1.65548 -3.28324 -7.53729 -1.78774 -3.27647 -7.74933 -1.92232 -3.26797 -7.95984 -2.07089 -3.26551 -8.1609 -2.13247 -3.19764 -8.39349 -2.09267 -3.14647 -8.63494 -2.04917 -3.10003 -8.87671 -2.04339 -3.02099 -9.04016 -2.03201 -2.96126 -9.28265 -2.02002 -2.90774 -9.52656 -2.01078 -2.83227 -9.76472 -1.92065 -2.73843 -9.97819 -1.90123 -2.70409 -10.0301 -1.90123 -2.70408 -10.0301 -1.73864 -2.60796 -10.1939 -1.55634 -2.51921 -10.3401 -1.38773 -2.41639 -10.4934 -1.17582 -2.40471 -10.6255 -0.975372 -2.44595 -10.7691 -0.964571 -2.44812 -10.7767 -0.790642 -2.56946 -10.909 -0.6157 -2.69273 -11.0383 -0.468578 -2.79122 -11.1476 -0.351778 -2.85327 -11.3597 -0.202722 -2.93179 -11.5445 -0.0181929 -3.02386 -11.6858 0.0701093 -3.06488 -11.7712 0.256157 -3.14177 -11.9195 0.443389 -3.21026 -12.0703 0.451788 -3.21371 -12.077 0 0 -3 -0.110661 0.0468332 -3.21923 -0.229334 0.114637 -3.42856 -0.35041 0.175967 -3.63851 -0.455045 0.23719 -3.85715 -0.492957 0.262623 -4.10294 -0.473965 0.391033 -4.3166 -0.461315 0.459004 -4.42987 -0.468622 0.51302 -4.67385 -0.470617 0.591411 -4.91124 -0.438703 0.674902 -5.14471 -0.431582 0.77043 -5.37563 -0.452755 0.79037 -5.62394 -0.473551 0.807491 -5.87248 -0.573323 0.748839 -6.0