<?xml version="1.0"?><VTKFile type="PolyData" version="0.1" byte_order="LittleEndian">
<PolyData>
<Piece NumberOfLines="26" NumberOfPoints="160">
<PointData Scalars=" PointData">
<DataArray type="Float32" Name="time" NumberOfComponents="1" format="ascii" >
0 0.49969 0.509567 0.723488 0.970333 1.23251 1.42783 1.59434 1.8416 2.02821 2.24336 2.43418 2.73068 2.95179 3.16091 3.43795 3.63454 3.8665 4.19037 4.49767 4.81755 5.0573 5.31845 5.56811 5.95463 6.23514 6.51531 6.82165 7.10401 7.36123 7.57579 7.89233 8.23234 8.54488 8.82084 9.13618 9.49973 9.8711 10 2.99582 4.42889 5.92895 7.50256 7.67327 8.34211 9.09786 9.76374 10 3.23165 4.62685 6.08714 7.48519 8.30688 8.95666 9.6609 10 3.50404 4.8642 6.28848 7.16826 7.90154 8.61537 9.28482 9.97691 10 3.79364 5.24862 6.77072 8.36642 8.71284 9.55636 10 4.00959 5.35063 6.75379 7.73166 8.47071 9.07176 9.72321 10 4.19383 5.65141 7.17621 8.77473 9.05454 9.71451 10 4.46764 5.82905 7.2529 8.67942 9.40956 10 4.6745 6.10608 7.60339 9.17274 9.4079 10 4.91318 6.29591 7.74129 9.25528 9.38228 9.99409 10 5.12505 6.57882 8.10174 9.51886 10 5.45462 6.88087 8.37429 9.64521 10 5.70067 7.12788 8.61883 10 5.9336 7.37546 8.88259 10 6.24251 7.7928 9.41599 10 6.46196 7.96913 9.54572 10 6.72113 8.10725 9.55776 10 7.08348 8.47713 9.93569 10 7.42778 8.82626 10 7.78672 9.18769 10 8.0561 9.42651 10 8.34988 9.76703 10 8.6311 10 9.06715 10 9.38414 10 9.7012 10 
</DataArray>

</PointData>
<CellData Scalars=" CellData">
<DataArray type="Float32" Name="radius" NumberOfComponents="1" format="ascii" >
0.073597 0.0483104 0.051644 0.0517459 0.0587091 0.0456802 0.0510339 0.0549657 0.0509917 0.0439557 0.0544356 0.0452806 0.0490116 0.0563493 0.052833 0.0434974 0.0482047 0.0525513 0.040465 0.0483956 0.053205 0.0496512 0.0419634 0.0455811 0.0489473 0.0492234 
</DataArray>
<DataArray type="Float32" Name="subType" NumberOfComponents="1" format="ascii" >
1 2 2 2 2 2 2 2 2 2 2 2 2 2 2 2 2 2 2 2 2 2 2 2 2 2 
</DataArray>
<DataArray type="Float32" Name="creationTime" NumberOfComponents="1" format="ascii" >
0 2.99582 3.23165 3.50404 3.79364 4.00959 4.19383 4.46764 4.6745 4.91318 5.12505 5.45462 5.70067 5.9336 6.24251 6.46196 6.72113 7.08348 7.42778 7.78672 8.0561 8.34988 8.6311 9.06715 9.38414 9.7012 
</DataArray>

</CellData>
<Points>
<DataArray type="Float32" Name="Coordinates" NumberOfComponents="3" format="ascii" >
0 0 -3 -0.0351313 0.0742711 -3.99662 -0.0358811 0.0767392 -4.01602 -0.135058 0.254566 -4.38567 -0.248002 0.452671 -4.811 -0.294358 0.576416 -5.301 -0.326549 0.629895 -5.6705 -0.40484 0.713642 -5.96626 -0.596925 0.768216 -6.38868 -0.78222 0.748572 -6.68456 -0.934675 0.692851 -7.05014 -1.0613 0.636704 -7.37368 -1.30647 0.514112 -7.84091 -1.46206 0.41981 -8.19703 -1.62771 0.273563 -8.50007 -1.80439 0.0978957 -8.92451 -1.94964 0.00470016 -9.22445 -2.11633 -0.0970646 -9.5791 -2.09966 -0.197477 -10.129 -2.19395 -0.291886 -10.6358 -2.21732 -0.421305 -11.1584 -2.25729 -0.533471 -11.5398 -2.30092 -0.655811 -11.9507 -2.34815 -0.771044 -12.3392 -2.37885 -0.948408 -12.9363 -2.43305 -1.02202 -13.3737 -2.45476 -1.08515 -13.81 -2.46837 -1.10302 -14.2866 -2.45535 -1.1283 -14.7204 -2.49293 -1.10894 -15.11 -2.51899 -1.0034 -15.4151 -2.43658 -0.847504 -15.8539 -2.30844 -0.739755 -16.3267 -2.22649 -0.688245 -16.7714 -2.16198 -0.656022 -17.1621 -2.01753 -0.68032 -17.5863 -1.84061 -0.736407 -18.062 -1.70467 -0.716795 -18.5574 -1.65419 -0.703191 -18.7262 -0.0358811 0.0767392 -4.01602 -0.935197 -0.108714 -4.41205 -1.67494 -0.120422 -5.08484 -2.5057 0.116579 -5.5885 -2.58859 0.152788 -5.6429 -2.89163 0.316634 -5.86194 -3.2362 0.522727 -6.06771 -3.52981 0.706922 -6.24386 -3.61547 0.753382 -6.33875 -0.135058 0.254566 -4.38567 0.439812 0.635646 -5.10975 0.690762 1.04504 -5.98692 0.801734 1.40591 -6.82001 0.996699 1.49891 -7.29172 1.11275 1.55623 -7.67099 1.25521 1.608 -8.06809 1.32799 1.64948 -8.2511 -0.248002 0.452671 -4.811 -0.892793 1.15125 -5.12121 -1.44419 1.77499 -5.67521 -1.75366 2.18329 -5.9769 -2.01343 2.52305 -6.20027 -2.25046 2.86165 -6.39894 -2.45814 3.16191 -6.60729 -2.72507 3.41743 -6.817 -2.7345 3.42568 -6.82327 -0.294358 0.576416 -5.301 -0.960302 1.23185 -5.65727 -1.62508 1.80439 -6.13713 -2.12959 2.44416 -6.71693 -2.24074 2.57172 -6.84264 -2.61398 2.84016 -7.04937 -2.80691 2.98467 -7.1468 -0.326549 0.629895 -5.6705 0.133641 -0.013782 -6.28198 0.676058 -0.0886687 -7.11874 1.04453 -0.187108 -7.66962 1.24181 -0.32248 -8.09979 1.38804 -0.466524 -8.43324 1.5175 -0.643751 -8.78629 1.57153 -0.717711 -8.93417 -0.40484 0.713642 -5.96626 -0.80189 -0.0151901 -6.52407 -1.11596 -0.82182 -7.02477 -1.42963 -1.63135 -7.52102 -1.48235 -1.77223 -7.60052 -1.58988 -2.11135 -7.77354 -1.65272 -2.24452 -7.85587 -0.596925 0.768216 -6.38868 -0.281546 0.834134 -7.33535 -0.268364 0.707483 -8.32721 -0.202906 0.638284 -9.27938 -0.165348 0.61314 -9.75025 -0.20397 0.573271 -10.1206 -0.78222 0.748572 -6.68456 -0.91016 -0.0472466 -7.27643 -0.950826 -0.68673 -8.04416 -0.85044 -1.0871 -8.95499 -0.842135 -1.14371 -9.08904 -0.815736 -1.28402 -9.42207 -0.934675 0.692851 -7.05014 -1.70527 0.276032 -7.53227 -2.47074 -0.190575 -7.97536 -3.22889 -0.303279 -8.61763 -3.28756 -0.312058 -8.67387 -3.54046 -0.289777 -8.96897 -3.54282 -0.289528 -8.97184 -1.0613 0.636704 -7.37368 -1.28272 1.33894 -8.05031 -1.44684 2.06528 -8.71777 -1.20367 2.61762 -9.37023 -1.16641 2.81384 -9.5845 -1.30647 0.514112 -7.84091 -2.25906 0.773867 -7.99934 -3.24437 0.690567 -8.14844 -4.04571 0.626271 -8.28053 -4.26602 0.602993 -8.28786 -1.46206 0.41981 -8.19703 -0.953444 0.10798 -8.99957 -0.50969 -0.54972 -9.60827 -0.068536 -1.09883 -10.148 -1.62771 0.273563 -8.50007 -1.09114 -0.349614 -9.06905 -0.598768 -0.860118 -9.774 -0.241593 -1.19078 -10.2947 -1.80439 0.0978957 -8.92451 -2.43956 -0.674123 -8.90122 -3.16249 -1.36301 -8.84824 -3.39305 -1.61876 -8.79487 -1.94964 0.00470016 -9.22445 -1.41833 -0.616391 -9.8006 -0.879177 -1.40643 -10.0924 -0.796788 -1.67192 -10.1234 -2.11633 -0.0970646 -9.5791 -1.63095 -0.640253 -10.2642 -1.03142 -1.0051 -10.9766 -0.838113 -1.07028 -11.1907 -2.09966 -0.197477 -10.129 -2.83787 -0.742061 -10.5271 -3.54274 -1.19816 -11.0703 -3.57398 -1.22045 -11.0898 -2.19395 -0.291886 -10.6358 -2.27346 -1.2441 -10.9307 -2.11094 -1.98209 -11.2109 -2.21732 -0.421305 -11.1584 -1.40403 -0.437805 -11.7401 -0.99308 -0.376579 -12.1159 -2.25729 -0.533471 -11.5398 -3.06519 -0.888835 -12.0099 -3.39452 -1.05517 -12.1785 -2.30092 -0.655811 -11.9507 -3.17033 -0.47045 -12.4087 -3.31078 -0.449067 -12.483 -2.34815 -0.771044 -12.3392 -1.43648 -0.741811 -12.6883 -2.37885 -0.948408 -12.9363 -2.48785 -0.403291 -13.3252 -2.43305 -1.02202 -13.3737 -2.19036 -1.2758 -13.6837 -2.45476 -1.08515 -13.81 -2.48231 -0.93744 -13.9647 
</DataArray>
</Points>
<Lines>
<DataArray type="Int32" Name="connectivity" NumberOfComponents="1" format="ascii" >
0 1 2 3 4 5 6 7 8 9 10 11 12 13 14 15 16 17 18 19 20 21 22 23 24 25 26 27 28 29 30 31 32 33 34 35 36 37 38 39 40 41 42 43 44 45 46 47 48 49 50 51 52 53 54 55 56 57 58 59 60 61 62 63 64 65 66 67 68 69 70 71 72 73 74 75 76 77 78 79 80 81 82 83 84 85 86 87 88 89 90 91 92 93 94 95 96 97 98 99 100 101 102 103 104 105 106 107 108 109 110 111 112 113 114 115 116 117 118 119 120 121 122 123 124 125 126 127 128 129 130 131 132 133 134 135 136 137 138 139 140 141 142 143 144 145 146 147 148 149 150 151 152 153 154 155 156 157 158 159 
</DataArray>
<DataArray type="Int32" Name="offsets" NumberOfComponents="1" format="ascii" >
39 48 56 65 72 80 87 93 99 106 111 116 120 124 128 132 136 140 143 146 149 152 154 156 158 160 
</DataArray>

</Lines>
</Piece>
</PolyData>
</VTKFile>
