<?xml version="1.0"?><VTKFile type="PolyData" version="0.1" byte_order="LittleEndian">
<PolyData>
<Piece NumberOfLines="51" NumberOfPoints="682">
<PointData Scalars=" PointData">
<DataArray type="Float32" Name="time" NumberOfComponents="1" format="ascii" >
0 0.0342817 0.158903 0.184086 0.309121 0.332197 0.457644 0.481439 0.607302 0.60755 0.733766 0.748364 0.874974 0.892831 1 0 0.00174857 0.139483 0.285835 0.327995 0.474874 0.494177 0.641523 0.668117 0.815953 0.823439 0.971714 1 0 0.0425366 0.179905 0.190416 0.328203 0.361542 0.499814 0.515564 0.654275 0.671795 0.810951 0.856369 0.996054 1 0 0.00342436 0.143611 0.159039 0.299653 0.340766 0.48188 0.50009 0.641644 0.660942 0.802942 0.811804 0.954222 0.983017 1 0 0.0438501 0.146463 0.258942 0.284613 0.397465 0.405447 0.518626 0.531779 0.645302 0.676859 0.790777 0.808874 0.923154 0.940267 1 0 0.0575395 0.195301 0.256044 0.394352 0.434008 0.572808 0.605894 0.745171 0.77564 0.91539 0.977618 1 0 0.059114 0.232306 0.292784 0.466634 0.488433 0.662836 0.692542 0.852541 1 0 0.191445 0.248695 0.440847 0.493705 0.686555 0.712635 0.906112 0.925447 1 0 0.0684567 0.285608 0.352377 0.570321 0.617589 0.836276 0.864652 1 0 0.190147 0.217028 0.407794 0.438543 0.629943 0.670673 0.862739 0.89572 1 0 0.0373098 0.161309 0.213799 0.338282 0.374161 0.499086 0.51356 0.63887 0.672013 0.797763 0.831268 0.95746 0.978195 1 0 0.0221903 0.149703 0.16197 0.28988 0.296915 0.425209 0.43398 0.562665 0.585562 0.714681 0.751111 0.880705 0.88552 1 0 0.0281488 0.18742 0.195669 0.355418 0.372609 0.532866 0.541726 0.697572 0.858764 0.883194 1 0 0.0424644 0.17263 0.1759 0.306451 0.360944 0.475098 0.606518 0.657208 0.78916 0.817362 0.949783 0.988367 1 0 0.0243574 0.153556 0.184653 0.314302 0.316726 0.446746 0.474739 0.605204 0.630406 0.761312 0.781171 0.912504 0.928224 1 0 0.135784 0.157257 0.293479 0.354321 0.491094 0.504265 0.641459 0.668145 0.805799 0.834193 0.972316 1 0 0.0497787 0.192633 0.229755 0.373106 0.381664 0.525436 0.548678 0.686735 0.831355 0.874626 1 0 0.0314526 0.149917 0.307037 0.338232 0.495892 0.527715 0.68592 0.720556 0.879317 0.93226 1 0 0.146551 0.173734 0.320762 0.344653 0.492151 0.533467 0.681487 0.718789 0.846094 0.994981 1 0 0.0229303 0.149569 0.16246 0.289482 0.313097 0.440536 0.485832 0.611858 0.740126 0.740392 0.869019 0.892401 1 0 0.0281286 0.162015 0.178542 0.312853 0.340927 0.475698 0.49472 0.629927 0.66446 0.80015 0.851465 0.987691 1 0 0.0274535 0.173406 0.211939 0.358392 0.368208 0.515086 0.546702 0.694067 0.696258 0.844032 0.892657 1 0 0.0144024 0.182004 0.220729 0.388902 0.447671 0.616475 0.663967 0.833375 0.870746 1 0 0.115824 0.143207 0.259424 0.273312 0.389886 0.415574 0.53254 0.554559 0.655712 0.773343 0.810077 0.927324 1 0 0.056819 0.179079 0.210591 0.324436 0.447447 0.470636 0.594059 0.644496 0.768411 0.800993 0.925352 0.926905 1 0 0.0587998 0.18639 0.218461 0.346494 0.365404 0.493844 0.500491 0.629308 0.646356 0.77558 0.823793 0.953515 0.967806 1 0 0.0463535 0.160995 0.162898 0.277871 0.299981 0.415176 0.530871 0.559022 0.675131 0.718801 0.83537 0.84855 0.965495 0.986806 1 0 0.0685115 0.187943 0.320387 0.339623 0.472489 0.49985 0.633164 0.656189 0.789942 0.83038 0.964623 0.981857 1 0 0.0699293 0.214556 0.271044 0.416226 0.450312 0.595991 0.659484 0.800348 0.947002 0.957839 1 0 0.122954 0.133488 0.252883 0.376538 0.421096 0.54522 0.54859 0.67307 0.692173 0.817056 0.851289 0.97662 1 0 0.0265945 0.161598 0.181889 0.317335 0.34578 0.481694 0.52449 0.660915 0.683985 0.820869 0.861001 0.998396 1 0 0.130357 0.147248 0.278007 0.297437 0.428606 0.448868 0.580452 0.585692 0.717651 0.762526 0.894973 0.918258 1 0 0.0213045 0.139291 0.165767 0.284157 0.293193 0.411941 0.439662 0.558823 0.5925 0.712093 0.751963 0.870026 0.990408 1 0 0.0183745 0.152485 0.186931 0.321515 0.348684 0.483724 0.501756 0.637229 0.683231 0.819218 0.828848 0.96525 1 0 0.150065 0.224241 0.374925 0.404471 0.555655 0.591763 0.743468 0.778339 0.930565 0.976311 1 0 0.0681967 0.22842 0.390903 0.433701 0.596746 0.628778 0.79236 0.824 0.988121 1 0 0.0345667 0.167931 0.199552 0.333385 0.343341 0.477586 0.518298 0.653044 0.690961 0.826204 0.860068 0.995799 1 0 0.00723638 0.130476 0.26025 0.291095 0.421318 0.43574 0.566369 0.596292 0.727374 0.794232 0.925872 0.970169 1 0 0.0919778 0.262719 0.293411 0.464733 0.498081 0.669995 0.698263 0.870759 0.871485 1 0 0.0126535 0.131632 0.156716 0.27609 0.309983 0.42978 0.458813 0.579021 0.614287 0.734926 0.781036 0.90214 0.93577 1 0 0.0733938 0.210762 0.260471 0.398355 0.42432 0.556378 0.695082 0.729694 0.86888 0.895583 1 0 0.0250332 0.152196 0.17534 0.302925 0.333076 0.461105 0.496035 0.624526 0.645273 0.774187 0.790577 0.919905 0.938179 1 0 0.0218026 0.130036 0.135168 0.243712 0.25603 0.364908 0.414656 0.523973 0.539782 0.649446 0.691929 0.802017 0.835988 0.946479 0.994817 1 0 0.0139787 0.113518 0.222098 0.259644 0.368629 0.401022 0.5104 0.538737 0.648499 0.671748 0.774244 0.884666 0.908136 1 0 0.0219245 0.164489 0.198799 0.341864 0.35156 0.495058 0.525179 0.669171 0.701916 0.828728 0.973586 0.998922 1 0 0.0184096 0.15698 0.18444 0.323478 0.369254 0.508814 0.545771 0.679778 0.82022 0.851899 0.992833 0.994455 1 0 0.0310653 0.174634 0.227292 0.371415 0.387756 0.532335 0.564912 0.709995 0.730335 0.87589 0.937261 1 0 0.0107189 0.170433 0.214643 0.374935 0.379938 0.540699 0.591961 0.753328 0.774116 0.936004 0.966709 1 0 0.0021183 0.151944 0.19673 0.347093 0.365554 0.516385 0.559428 0.707977 0.859762 0.899923 1 0 0.0285151 0.157961 0.182226 0.312108 0.335848 0.466167 0.508027 0.638837 0.685156 0.816474 0.838802 0.970562 0.996682 1 0 0.035284 0.172714 0.246858 0.384885 0.415233 0.553735 0.559495 0.692543 0.831834 0.874306 1 
</DataArray>

</PointData>
<CellData Scalars=" CellData">
<DataArray type="Float32" Name="radius" NumberOfComponents="1" format="ascii" >
0.038398 0.0436778 0.0366325 0.0419828 0.0329482 0.0468959 0.0393979 0.0334291 0.0423551 0.0474491 0.0405532 0.0355971 0.0470413 0.0409207 0.0410741 0.0435613 0.0387138 0.0435103 0.0440544 0.0411946 0.0260173 0.0341422 0.0330659 0.0416493 0.0397023 0.0407202 0.032067 0.0398374 0.0393937 0.0377164 0.0370556 0.0363924 0.0316674 0.0373788 0.0363515 0.0389102 0.0423271 0.0361074 0.040968 0.0424529 0.0435805 0.0481167 0.0360447 0.0499044 0.0465806 0.0415839 0.0394049 0.0459633 0.0395847 0.039479 0.0389506 
</DataArray>
<DataArray type="Float32" Name="subType" NumberOfComponents="1" format="ascii" >
1 4 4 4 4 4 4 4 4 4 4 4 4 4 4 4 4 4 4 4 4 4 4 4 4 4 4 4 4 4 4 4 4 4 4 4 4 4 4 4 4 4 4 4 4 4 4 4 4 4 4 
</DataArray>
<DataArray type="Float32" Name="creationTime" NumberOfComponents="1" format="ascii" >
0 0 0 0 0 0 0 0 0 0 0 0 0 0 0 0 0 0 0 0 0 0 0 0 0 0 0 0 0 0 0 0 0 0 0 0 0 0 0 0 0 0 0 0 0 0 0 0 0 0 0 
</DataArray>

</CellData>
<Points>
<DataArray type="Float32" Name="Coordinates" NumberOfComponents="3" format="ascii" >
0 0 -3 -0.0928867 0.100197 -3.01782 -0.461455 0.429149 -3.09494 -0.53584 0.495493 -3.11043 -0.990037 0.664892 -3.23295 -1.07463 0.701079 -3.23767 -1.56925 0.755548 -3.28641 -1.6629 0.765939 -3.2958 -2.13519 0.889268 -3.4041 -2.13611 0.889508 -3.40435 -2.60265 0.955226 -3.57175 -2.65777 0.964759 -3.58608 -3.12614 1.07195 -3.72445 -3.18668 1.08169 -3.75903 -3.59011 1.05519 -3.6382 0 0 -3 -0.00504335 -0.00322546 -2.99963 -0.398699 -0.261309 -3.03211 -0.685312 -0.644894 -2.88818 -0.787933 -0.73218 -2.83797 -1.22449 -0.899826 -2.66102 -1.28248 -0.923451 -2.64145 -1.75507 -0.932844 -2.80446 -1.84029 -0.935856 -2.83356 -2.23212 -0.941623 -3.14409 -2.25182 -0.941945 -3.15993 -2.63022 -0.9001 -3.48407 -2.69679 -0.874715 -3.54725 0 0 -3 0.0469605 0.0876261 -3.11906 0.202579 0.366707 -3.50364 0.21225 0.387015 -3.53451 0.35336 0.56931 -3.9782 0.385124 0.598781 -4.09092 0.575955 0.792094 -4.5107 0.594343 0.808907 -4.56182 0.734985 1.09232 -4.94898 0.753013 1.12585 -4.99924 0.479285 1.24591 -5.40007 0.408714 1.29938 -5.53678 0.436149 1.5337 -5.97763 0.435631 1.54036 -5.99004 0 0 -3 -0.00685416 0.00445284 -3.0091 -0.272288 -0.0131605 -3.43246 -0.298433 -0.0185685 -3.48048 -0.510091 -0.128305 -3.91998 -0.591579 -0.150506 -4.03899 -0.787475 -0.415927 -4.41472 -0.807061 -0.458138 -4.45927 -0.924238 -0.632656 -4.91294 -0.942449 -0.662756 -4.9712 -0.846679 -0.858076 -5.4214 -0.838735 -0.870243 -5.44896 -0.729564 -1.09902 -5.87994 -0.708803 -1.14371 -5.96802 -0.70486 -1.16742 -6.02244 0 0 -3 0.0401848 -0.0977027 -3.16482 -0.0667493 -0.317094 -3.55157 -0.112305 -0.66837 -3.90446 -0.149081 -0.718408 -3.99997 -0.254106 -0.821761 -4.47777 -0.259192 -0.831002 -4.51147 -0.471016 -0.993102 -4.93438 -0.500043 -1.00284 -4.98366 -0.639205 -0.838509 -5.43491 -0.679234 -0.834651 -5.5677 -0.635764 -0.849673 -6.06558 -0.616579 -0.856573 -6.14222 -0.426419 -0.927862 -6.59912 -0.392698 -0.937296 -6.66517 -0.300188 -0.981422 -6.90487 0 0 -3 0.00540205 0.190388 -3.08664 -0.011719 0.630558 -3.32319 0.0740356 0.802234 -3.43083 0.321018 1.16633 -3.66838 0.342009 1.28117 -3.75115 0.386657 1.6303 -4.10628 0.399776 1.7126 -4.1912 0.253963 1.80175 -4.66108 0.219844 1.82089 -4.76303 0.0664213 1.90579 -5.23127 0.0121319 1.91061 -5.44668 -0.00793457 1.91734 -5.52368 0 0 -3 0.0996653 -0.118717 -3.07217 0.356536 -0.531974 -3.18722 0.440268 -0.68235 -3.21451 0.797351 -0.99337 -3.375 0.841969 -1.03516 -3.38847 1.19217 -1.37435 -3.4994 1.2601 -1.42191 -3.51817 1.68544 -1.52083 -3.65372 1.89338 -1.78836 -3.90249 0 0 -3 -0.149041 0.398772 -3.26224 -0.179792 0.516383 -3.34882 -0.296778 0.800061 -3.74359 -0.354092 0.84177 -3.86117 -0.360614 0.957897 -4.34745 -0.363325 0.974131 -4.41292 -0.379694 1.0944 -4.89796 -0.381397 1.10632 -4.94638 -0.401445 1.12228 -5.13689 0 0 -3 0.0361752 -0.022946 -3.15199 0.170148 -0.0781097 -3.63054 0.211221 -0.108134 -3.77532 0.537954 0.0679863 -4.11032 0.585407 0.109909 -4.19813 0.704233 0.318187 -4.63688 0.709119 0.348157 -4.6941 0.680774 0.594953 -4.87725 0 0 -3 0.205695 0.0715257 -3.45008 0.235596 0.0840443 -3.51276 0.457268 0.0543785 -3.95996 0.493118 0.0532707 -4.03198 0.703711 0.150529 -4.47492 0.735618 0.164493 -4.57526 0.868458 0.435358 -4.97399 0.899461 0.475778 -5.04293 0.997753 0.601463 -5.26165 0 0 -3 -0.0471376 -0.13322 -3.05239 -0.277457 -0.523785 -3.26313 -0.343402 -0.685189 -3.38239 -0.499588 -1.0673 -3.66452 -0.498858 -1.1381 -3.78975 -0.422232 -1.06525 -4.27844 -0.412183 -1.06096 -4.33524 -0.183012 -1.2611 -4.73201 -0.130234 -1.30891 -4.84317 -0.0349668 -1.41807 -5.32172 -0.0265472 -1.46019 -5.44758 0.117518 -1.74315 -5.83382 0.142267 -1.7807 -5.90241 0.170944 -1.81906 -5.9741 0 0 -3 -0.0264127 -0.0687356 -3.04663 -0.146104 -0.436564 -3.36345 -0.158909 -0.47019 -3.39526 -0.332283 -0.797643 -3.73099 -0.341344 -0.815546 -3.74974 -0.498851 -1.14668 -4.08966 -0.511568 -1.16945 -4.11167 -0.807847 -1.54024 -4.26894 -0.87784 -1.59276 -4.28415 -1.26137 -1.90793 -4.3439 -1.37801 -1.98486 -4.36139 -1.79983 -2.25014 -4.40255 -1.81602 -2.25877 -4.40529 -2.14799 -2.49357 -4.57456 0 0 -3 -0.0610723 0.0583246 -3.02652 -0.391704 0.376957 -3.2244 -0.412129 0.391546 -3.23062 -0.782695 0.698564 -3.36634 -0.822862 0.733009 -3.37563 -1.1037 1.14639 -3.36009 -1.1201 1.16854 -3.35846 -1.39163 1.56926 -3.38524 -1.66718 1.97912 -3.46323 -1.72302 2.02919 -3.47313 -1.89263 2.33958 -3.3996 0 0 -3 0.0291604 -0.127515 -3.09797 0.183119 -0.498486 -3.39576 0.186987 -0.507774 -3.40325 0.385611 -0.849962 -3.70896 0.42273 -1.00999 -3.83699 0.503215 -1.34627 -4.10173 0.605976 -1.72863 -4.40709 0.64867 -1.87019 -4.5303 0.822104 -2.2597 -4.79147 0.856766 -2.33626 -4.85717 0.914239 -2.74431 -5.14034 0.940975 -2.8522 -5.2341 0.946115 -2.88507 -5.26261 0 0 -3 -0.0552082 0.0160306 -3.0749 -0.25528 0.209967 -3.49006 -0.298358 0.223919 -3.60134 -0.171305 0.25159 -4.08414 -0.167854 0.251308 -4.09281 -0.0333927 0.13968 -4.56127 -0.0597431 0.110346 -4.66124 -0.153099 -0.146035 -5.08023 -0.180439 -0.178105 -5.16696 -0.303132 -0.23381 -5.64846 -0.308104 -0.246287 -5.72299 -0.379337 -0.380514 -6.19934 -0.383703 -0.398174 -6.25625 -0.532133 -0.49078 -6.46526 0 0 -3 0.429413 -0.10921 -3.23169 0.496678 -0.128017 -3.26848 0.923822 -0.182875 -3.52253 1.12789 -0.185165 -3.6121 1.54162 -0.305316 -3.86584 1.57533 -0.31512 -3.89869 1.83429 -0.403916 -4.31709 1.89218 -0.421237 -4.39309 2.23467 -0.584783 -4.71859 2.30263 -0.622683 -4.78602 2.53737 -0.769598 -5.20232 2.58291 -0.801653 -5.28543 0 0 -3 -0.00161279 -0.0110115 -3.1742 0.0581524 -0.0343762 -3.67006 0.0814903 -0.0370524 -3.79762 0.233962 -0.0119468 -4.27314 0.242886 -0.0101971 -4.30153 0.336619 -0.0447162 -4.79145 0.356255 -0.0485348 -4.86963 0.335169 -0.0625978 -5.34757 0.436657 -0.0269811 -5.83587 0.461022 -0.0199515 -5.98303 0.594534 -0.110757 -6.3837 0 0 -3 0.0811747 -0.0114746 -3.05809 0.434269 0.00247298 -3.19212 0.828803 -0.0157663 -3.49873 0.912355 -0.0250637 -3.5512 1.39673 -0.036783 -3.67465 1.49565 -0.0203544 -3.66484 1.97856 0.0915966 -3.59953 2.08154 0.119507 -3.57591 2.47031 0.426036 -3.50597 2.59795 0.531295 -3.48793 2.75769 0.670016 -3.46606 0 0 -3 0.231334 -0.140533 -3.4204 0.290625 -0.165582 -3.48696 0.514049 -0.231626 -3.92936 0.540204 -0.232506 -4.00614 0.479364 -0.227567 -4.5024 0.462151 -0.228989 -4.64114 0.499011 -0.134671 -5.13078 0.500093 -0.106619 -5.25339 0.553964 -0.0390979 -5.67323 0.723219 0.0818522 -6.12789 0.73083 0.0861059 -6.14229 0 0 -3 -0.0415658 0.0471345 -3.06537 0.0109018 0.162698 -3.549 9.72893e-05 0.174835 -3.59715 -0.158942 0.225412 -4.06847 -0.197671 0.23738 -4.15196 -0.323079 0.125718 -4.62292 -0.374992 0.103155 -4.79103 -0.530074 0.0404912 -5.25438 -0.615929 0.209412 -5.71708 -0.616066 0.209758 -5.71805 -0.652126 0.306452 -6.20728 -0.663721 0.311043 -6.29717 -0.701338 0.239106 -6.70617 0 0 -3 -0.0301263 -0.0575428 -3.08279 -0.210312 -0.300567 -3.48087 -0.234473 -0.334517 -3.52627 -0.309218 -0.463657 -4.00348 -0.340403 -0.49358 -4.09845 -0.501956 -0.623516 -4.55344 -0.525074 -0.645154 -4.61638 -0.748247 -0.489499 -5.03586 -0.791252 -0.456241 -5.15116 -0.977516 -0.345565 -5.60178 -1.04602 -0.309421 -5.77387 -1.14652 -0.0245579 -6.17231 -1.15651 -0.00220412 -6.21019 0 0 -3 -0.0815292 -0.0156111 -3.04453 -0.234702 -0.0346218 -3.52011 -0.29005 -0.0549874 -3.63796 -0.377436 -0.124036 -4.1254 -0.381255 -0.129657 -4.15816 -0.177082 0.0503629 -4.57757 -0.129203 0.087725 -4.66621 0.0401908 0.260769 -5.10366 0.0429338 0.263442 -5.11002 0.0550861 0.633173 -5.4464 0.0671505 0.723403 -5.58309 0.127337 1.00213 -5.80612 0 0 -3 -0.0299639 0.0122129 -3.02837 -0.39001 0.117373 -3.35898 -0.480498 0.153491 -3.4207 -0.771075 0.251913 -3.81551 -0.914578 0.2828 -3.90968 -1.15914 0.385119 -4.33362 -1.2374 0.423164 -4.44383 -1.4296 0.566566 -4.88257 -1.47322 0.599224 -4.97825 -1.6226 0.708503 -5.31049 0 0 -3 0.384783 0.313783 -3.05901 0.471262 0.385241 -3.09564 0.847731 0.680929 -3.24 0.893557 0.713565 -3.25985 1.25515 0.948388 -3.51305 1.33568 0.999755 -3.56759 1.66629 1.2442 -3.8521 1.7142 1.29685 -3.91345 1.92917 1.54418 -4.19351 2.13499 1.77172 -4.58831 2.21479 1.81616 -4.71459 2.3261 1.84015 -5.19792 2.31395 1.7064 -5.47411 0 0 -3 -0.164164 0.0740912 -3.14757 -0.427982 0.0634415 -3.57217 -0.471368 0.0627175 -3.69328 -0.613228 -0.0158837 -4.12801 -0.771449 -0.0926311 -4.59607 -0.794977 -0.112075 -4.68508 -0.808501 -0.126523 -5.18469 -0.813648 -0.131942 -5.38847 -0.815508 -0.106898 -5.88784 -0.809802 -0.111705 -6.01887 -0.884323 0.0720658 -6.47786 -0.885292 0.0745705 -6.48349 -0.941036 0.160353 -6.75828 0 0 -3 -0.00791337 -0.222423 -3.06144 0.29633 -0.619185 -3.06544 0.360534 -0.726275 -3.05319 0.697124 -1.09599 -3.05729 0.747925 -1.14872 -3.06594 1.16504 -1.34392 -3.26066 1.18672 -1.35344 -3.27101 1.55996 -1.17842 -3.55395 1.59205 -1.1479 -3.60298 1.70256 -0.919953 -4.03406 1.73812 -0.825161 -4.19032 1.83476 -0.618476 -4.63522 1.84551 -0.596314 -4.6844 1.90936 -0.546728 -4.77821 0 0 -3 -0.189919 -0.0154089 -3.06876 -0.576445 0.279897 -3.18449 -0.582372 0.285532 -3.18582 -0.953548 0.610063 -3.26893 -1.03841 0.64367 -3.29863 -1.46916 0.883698 -3.37677 -1.77847 1.07008 -3.72258 -1.86673 1.10199 -3.79966 -2.1034 1.12527 -4.23949 -2.18527 1.15554 -4.40564 -2.51614 1.15769 -4.7805 -2.54283 1.15866 -4.83022 -2.80112 1.01337 -5.23293 -2.84859 0.987053 -5.30592 -2.87721 0.967309 -5.35019 0 0 -3 0.134363 0.221419 -2.9791 0.370889 0.59111 -3.08751 0.693159 0.833468 -3.38315 0.740506 0.869568 -3.42452 1.1077 1.10921 -3.66481 1.18053 1.15578 -3.72043 1.55339 1.34383 -3.99541 1.61489 1.35588 -4.05462 1.9918 1.29441 -4.37736 2.09564 1.27382 -4.48488 2.55854 1.12245 -4.5981 2.611 1.10191 -4.62864 2.66414 1.08222 -4.6652 0 0 -3 -0.0371245 0.071817 -3.22836 -0.134434 0.37913 -3.61058 -0.119408 0.485518 -3.77321 -0.0592013 0.731027 -4.2046 -0.0374493 0.74446 -4.31897 -0.0682953 0.831704 -4.81034 -0.0800087 0.796746 -5.02467 -0.0318637 0.83777 -5.50208 -0.00946233 0.78377 -5.99865 -0.00434079 0.783737 -6.03518 0.0245999 0.793024 -6.17538 0 0 -3 -0.48161 -0.0217106 -3.13259 -0.523229 -0.0182854 -3.14185 -0.930479 0.0844928 -3.38253 -1.3491 0.0172345 -3.64754 -1.47487 -0.046493 -3.75916 -1.73583 -0.0961589 -4.18275 -1.7424 -0.0973492 -4.19455 -1.99851 -0.155496 -4.62003 -2.03999 -0.161166 -4.68417 -2.29594 -0.233909 -5.1075 -2.3487 -0.269602 -5.22858 -2.55486 -0.563089 -5.57695 -2.5921 -0.636461 -5.62054 0 0 -3 0.007541 0.00676867 -3.09814 -0.0851315 0.0399685 -3.58835 -0.104291 0.0415407 -3.66088 -0.279473 -0.0392785 -4.12216 -0.327555 -0.0455943 -4.21509 -0.443995 0.0829666 -4.68404 -0.431589 0.113655 -4.83766 -0.554245 0.271305 -5.29603 -0.580389 0.292978 -5.37331 -0.734449 0.278545 -5.84877 -0.754799 0.262007 -5.99271 -0.808117 0.319659 -6.48651 -0.808583 0.320274 -6.49229 0 0 -3 -0.00661787 -0.0524815 -3.49719 -0.00234848 -0.0567997 -3.5616 0.0201579 -0.00762373 -4.05866 0.0148369 0.0105087 -4.1304 -0.0247597 0.0828693 -4.62355 -0.0311145 0.086856 -4.7003 -0.0714273 0.116334 -5.1978 -0.070568 0.118986 -5.21749 -0.0508057 0.225227 -5.70567 -0.0313405 0.297571 -5.85796 0.058281 0.440094 -6.32876 0.0756772 0.455786 -6.41334 0.0927203 0.577169 -6.69562 0 0 -3 0.0221868 -0.0364235 -3.07974 0.224385 -0.388755 -3.37126 0.291424 -0.456265 -3.43037 0.630503 -0.731851 -3.67343 0.656353 -0.75219 -3.69266 1.02354 -1.0084 -3.91522 1.10518 -1.07 -3.97104 1.18014 -1.24085 -4.43493 1.20534 -1.30431 -4.55835 1.24652 -1.27512 -5.05579 1.30235 -1.23233 -5.20657 1.21803 -1.10305 -5.67347 1.23351 -0.969983 -6.15519 1.23748 -0.961253 -6.19379 0 0 -3 -0.026663 -0.0195225 -3.06013 -0.180488 -0.0837651 -3.53152 -0.237128 -0.0957339 -3.6459 -0.531195 0.0346722 -4.02868 -0.594557 0.0460269 -4.10621 -0.853409 0.275 -4.46755 -0.881204 0.31334 -4.51446 -1.20983 0.54732 -4.80986 -1.32117 0.625824 -4.91064 -1.69919 0.830038 -5.16638 -1.72486 0.846873 -5.1839 -2.02373 1.06882 -5.51769 -2.10709 1.11355 -5.60266 0 0 -3 -0.0983774 0.336792 -3.35622 -0.232583 0.357403 -3.56212 -0.526562 0.461736 -3.95288 -0.584414 0.480991 -4.02944 -0.895732 0.553766 -4.41387 -0.966273 0.562477 -4.50957 -1.1498 0.63916 -4.96831 -1.17589 0.653747 -5.07908 -1.55201 0.638635 -5.40818 -1.65369 0.643698 -5.51831 -1.70071 0.640138 -5.57997 0 0 -3 0.00439671 0.0713199 -3.19835 0.0818244 0.0711021 -3.68664 -0.100865 0.215352 -4.12915 -0.15475 0.249853 -4.244 -0.588308 0.222276 -4.49152 -0.666475 0.200036 -4.54641 -0.902775 0.130492 -4.98153 -0.914464 0.0942695 -5.07026 -0.975735 -0.0282214 -5.55114 -0.979643 -0.036053 -5.5862 0 0 -3 0.0970658 -0.00666994 -3.08596 0.459226 -0.118115 -3.41218 0.555571 -0.130025 -3.47986 0.998545 -0.213695 -3.69613 1.03276 -0.218538 -3.70973 1.46704 -0.28345 -3.94888 1.5989 -0.302231 -4.02076 2.04737 -0.506661 -4.10494 2.16256 -0.581648 -4.13377 2.44046 -0.923852 -4.36971 2.50143 -1.01741 -4.42582 2.77591 -1.34849 -4.68087 2.78444 -1.35874 -4.68867 0 0 -3 -0.0225615 0.0115495 -3.01189 -0.0183546 0.330735 -3.36515 -0.0606357 0.693765 -3.70635 -0.0612961 0.77049 -3.79684 -0.0439 1.26987 -3.7791 -0.0419099 1.32487 -3.77377 -0.202882 1.79018 -3.8608 -0.237974 1.89847 -3.8715 -0.0782996 2.37134 -3.84155 0.0177399 2.6024 -3.79517 -0.00246684 3.05732 -3.58867 0.0156788 3.21984 -3.55048 0.0381335 3.32896 -3.5316 0 0 -3 0.114394 0.236701 -3.06129 0.336361 0.645417 -3.24482 0.372408 0.718591 -3.28219 0.51599 1.11463 -3.55152 0.56487 1.19461 -3.5771 0.694489 1.63877 -3.76662 0.716593 1.71308 -3.79356 0.859333 2.1921 -3.80643 0.859908 2.19412 -3.80652 0.889494 2.5624 -3.76701 0 0 -3 0.00250809 -0.0491624 -3.02032 -0.0627683 -0.481707 -3.26249 -0.077702 -0.569646 -3.31833 0.0117153 -1.04815 -3.43252 0.0214552 -1.18545 -3.46624 0.0416294 -1.68424 -3.49439 0.0455631 -1.80501 -3.5003 0.0771956 -2.30309 -3.5305 0.0915339 -2.44842 -3.54111 0.299283 -2.89838 -3.60727 0.381658 -3.0697 -3.62293 0.23015 -3.51575 -3.7905 0.206047 -3.61899 -3.87978 0.260379 -3.77374 -4.08718 0 0 -3 0.00138665 -0.224492 -3.14584 -0.0354105 -0.610819 -3.46111 -0.0507065 -0.755873 -3.5676 -0.273452 -1.1412 -3.79542 -0.336464 -1.18655 -3.84843 -0.68305 -1.38617 -4.10895 -0.994529 -1.64678 -4.40061 -1.06114 -1.69256 -4.49538 -1.40909 -1.75135 -4.8496 -1.45762 -1.76572 -4.9309 -1.68696 -1.81733 -5.22176 0 0 -3 0.0632841 0.0397026 -3.06434 0.405861 0.213122 -3.3846 0.475051 0.24733 -3.43253 0.856477 0.406069 -3.71416 0.960235 0.422716 -3.76773 1.34067 0.255449 -4.04574 1.4483 0.200126 -4.10817 1.67652 0.115202 -4.54487 1.70931 0.106494 -4.61798 1.90869 -0.00370972 -5.06307 1.91895 -0.00975148 -5.12541 2.07884 0.151216 -5.57097 2.09806 0.149022 -5.6388 2.05633 0.212613 -5.86475 0 0 -3 -0.0302951 0.0876172 -3.03979 -0.35497 0.435841 -3.19252 -0.371176 0.451185 -3.20043 -0.700612 0.781175 -3.38092 -0.73568 0.818273 -3.40549 -0.986204 1.22336 -3.55762 -1.09575 1.40634 -3.63826 -1.25593 1.74004 -3.97439 -1.26046 1.79403 -4.02211 -1.22056 1.87819 -4.51335 -1.20145 1.90902 -4.70324 -0.899309 1.60237 -4.95757 -0.80758 1.50712 -5.0365 -0.647181 1.57813 -5.50472 -0.585276 1.60327 -5.71255 -0.575863 1.60549 -5.73384 0 0 -3 0.0247674 0.0200492 -3.05623 -0.105529 0.144923 -3.47889 -0.354696 0.175588 -3.9113 -0.475729 0.168486 -4.03412 -0.713355 0.33616 -4.44083 -0.767463 0.387536 -4.56905 -0.8125 0.636476 -5.00032 -0.833577 0.710984 -5.10389 -1.0087 0.676462 -5.57095 -1.0598 0.668446 -5.66316 -1.19445 0.624511 -6.10645 -1.19284 0.716899 -6.59784 -1.20015 0.730006 -6.70286 -1.23556 0.735635 -7.11596 0 0 -3 0.0342867 -0.0623846 -3.0294 0.246217 -0.277934 -3.42768 0.296391 -0.330037 -3.52358 0.426641 -0.594465 -3.92745 0.438393 -0.610899 -3.95459 0.764962 -0.816943 -4.27224 0.845145 -0.870209 -4.31361 0.922063 -1.26088 -4.61602 0.928223 -1.32733 -4.70785 1.04747 -1.43373 -5.1166 1.20213 -1.57107 -5.57181 1.22694 -1.58087 -5.65494 1.2282 -1.58135 -5.6584 0 0 -3 0.0355948 0.0454911 -3.03302 0.269892 0.404401 -3.29048 0.2982 0.479849 -3.34785 0.0876234 0.487008 -3.80128 0.0500279 0.540413 -3.95205 -0.0934676 0.616438 -4.42495 -0.124295 0.629024 -4.55285 -0.126005 0.723371 -5.02187 -0.0676562 0.816309 -5.50968 -0.0409736 0.837567 -5.61697 0.401297 0.877355 -5.84678 0.406345 0.877678 -5.8495 0.4232 0.879076 -5.85949 0 0 -3 0.0312837 -0.086119 -3.05788 0.372814 -0.410261 -3.22607 0.515651 -0.509235 -3.28356 0.876571 -0.847154 -3.35804 0.913226 -0.888585 -3.37003 1.33217 -1.05152 -3.58898 1.41945 -1.09827 -3.64232 1.60389 -0.754272 -3.9548 1.61188 -0.70082 -3.99926 1.63721 -0.307125 -4.30645 1.70001 -0.141929 -4.4206 1.6435 0.00821727 -4.56346 0 0 -3 -0.014075 -0.0305007 -2.99898 -0.0953727 -0.52102 -3.05172 -0.0980129 -0.654026 -3.089 -0.231247 -1.08211 -3.31034 -0.235085 -1.0958 -3.31672 -0.368195 -1.53194 -3.52181 -0.342293 -1.6886 -3.53227 -0.583503 -2.1259 -3.50791 -0.60506 -2.18637 -3.50412 -0.855993 -2.61865 -3.51679 -0.891208 -2.70629 -3.52337 -0.92888 -2.80086 -3.53608 0 0 -3 0.000150005 -0.00637372 -3.00308 -0.187333 -0.4671 -3.05389 -0.245427 -0.600766 -3.08578 -0.320604 -1.05021 -3.29157 -0.320997 -1.1055 -3.31802 -0.663476 -1.4576 -3.22456 -0.76625 -1.55001 -3.19014 -1.24523 -1.63555 -3.25373 -1.74003 -1.63748 -3.32561 -1.86949 -1.64417 -3.35084 -2.16668 -1.7359 -3.45708 0 0 -3 0.107342 -0.0145698 -3.02095 0.495281 -0.124225 -3.31671 0.563582 -0.147439 -3.37631 0.662737 -0.428927 -3.77747 0.679831 -0.478587 -3.85208 0.762119 -0.673281 -4.30521 0.811736 -0.726033 -4.44822 1.15101 -0.834987 -4.79897 1.28379 -0.84058 -4.91542 1.66878 -0.83153 -5.23432 1.7314 -0.829846 -5.2916 1.81246 -0.910779 -5.7783 1.82763 -0.927552 -5.87462 1.82939 -0.930062 -5.88681 0 0 -3 0.00795982 -0.00255066 -3.12833 0.0758286 -0.0620164 -3.62012 0.119763 -0.085538 -3.88463 0.232535 -0.154935 -4.36678 0.258221 -0.172513 -4.47202 0.528874 -0.338775 -4.85816 0.540336 -0.345069 -4.87428 0.8093 -0.463365 -5.25248 0.975719 -0.714652 -5.65142 1.03071 -0.793397 -5.76946 1.19312 -1.02548 -6.11859 
</DataArray>
</Points>
<Lines>
<DataArray type="Int32" Name="connectivity" NumberOfComponents="1" format="ascii" >
0 1 2 3 4 5 6 7 8 9 10 11 12 13 14 15 16 17 18 19 20 21 22 23 24 25 26 27 28 29 30 31 32 33 34 35 36 37 38 39 40 41 42 43 44 45 46 47 48 49 50 51 52 53 54 55 56 57 58 59 60 61 62 63 64 65 66 67 68 69 70 71 72 73 74 75 76 77 78 79 80 81 82 83 84 85 86 87 88 89 90 91 92 93 94 95 96 97 98 99 100 101 102 103 104 105 106 107 108 109 110 111 112 113 114 115 116 117 118 119 120 121 122 123 124 125 126 127 128 129 130 131 132 133 134 135 136 137 138 139 140 141 142 143 144 145 146 147 148 149 150 151 152 153 154 155 156 157 158 159 160 161 162 163 164 165 166 167 168 169 170 171 172 173 174 175 176 177 178 179 180 181 182 183 184 185 186 187 188 189 190 191 192 193 194 195 196 197 198 199 200 201 202 203 204 205 206 207 208 209 210 211 212 213 214 215 216 217 218 219 220 221 222 223 224 225 226 227 228 229 230 231 232 233 234 235 236 237 238 239 240 241 242 243 244 245 246 247 248 249 250 251 252 253 254 255 256 257 258 259 260 261 262 263 264 265 266 267 268 269 270 271 272 273 274 275 276 277 278 279 280 281 282 283 284 285 286 287 288 289 290 291 292 293 294 295 296 297 298 299 300 301 302 303 304 305 306 307 308 309 310 311 312 313 314 315 316 317 318 319 320 321 322 323 324 325 326 327 328 329 330 331 332 333 334 335 336 337 338 339 340 341 342 343 344 345 346 347 348 349 350 351 352 353 354 355 356 357 358 359 360 361 362 363 364 365 366 367 368 369 370 371 372 373 374 375 376 377 378 379 380 381 382 383 384 385 386 387 388 389 390 391 392 393 394 395 396 397 398 399 400 401 402 403 404 405 406 407 408 409 410 411 412 413 414 415 416 417 418 419 420 421 422 423 424 425 426 427 428 429 430 431 432 433 434 435 436 437 438 439 440 441 442 443 444 445 446 447 448 449 450 451 452 453 454 455 456 457 458 459 460 461 462 463 464 465 466 467 468 469 470 471 472 473 474 475 476 477 478 479 480 481 482 483 484 485 486 487 488 489 490 491 492 493 494 495 496 497 498 499 500 501 502 503 504 505 506 507 508 509 510 511 512 513 514 515 516 517 518 519 520 521 522 523 524 525 526 527 528 529 530 531 532 533 534 535 536 537 538 539 540 541 542 543 544 545 546 547 548 549 550 551 552 553 554 555 556 557 558 559 560 561 562 563 564 565 566 567 568 569 570 571 572 573 574 575 576 577 578 579 580 581 582 583 584 585 586 587 588 589 590 591 592 593 594 595 596 597 598 599 600 601 602 603 604 605 606 607 608 609 610 611 612 613 614 615 616 617 618 619 620 621 622 623 624 625 626 627 628 629 630 631 632 633 634 635 636 637 638 639 640 641 642 643 644 645 646 647 648 649 650 651 652 653 654 655 656 657 658 659 660 661 662 663 664 665 666 667 668 669 670 671 672 673 674 675 676 677 678 679 680 681 
</DataArray>
<DataArray type="Int32" Name="offsets" NumberOfComponents="1" format="ascii" >
15 28 42 57 73 86 96 106 115 125 140 155 167 181 196 209 221 233 245 259 273 286 297 311 325 340 356 370 382 396 410 424 439 453 465 476 490 504 515 530 542 557 574 589 603 617 630 643 655 670 682 
</DataArray>

</Lines>
</Piece>
</PolyData>
</VTKFile>
