<?xml version="1.0"?><VTKFile type="PolyData" version="0.1" byte_order="LittleEndian">
<PolyData>
<Piece NumberOfLines="1" NumberOfPoints="46">
<PointData Scalars=" PointData">
<DataArray type="Float32" Name="time" NumberOfComponents="1" format="ascii" >
0 0.128339 0.256945 0.385821 0.514967 0.644385 0.774075 0.904038 1.03428 1.16479 1.29558 1.42665 1.558 1.68963 1.82154 1.95374 2.08622 2.21898 2.35204 2.48538 2.61901 2.75293 2.88714 3.02164 3.15644 3.29154 3.42693 3.56262 3.69861 3.8349 3.97149 4.10839 4.24559 4.3831 4.52091 4.65904 4.79747 4.93622 5.07528 5.21466 5.35435 5.49435 5.63468 5.77533 5.9163 6 
</DataArray>

</PointData>
<CellData Scalars=" CellData">
<DataArray type="Float32" Name="radius" NumberOfComponents="1" format="ascii" >
0.13 
</DataArray>
<DataArray type="Float32" Name="subType" NumberOfComponents="1" format="ascii" >
1 
</DataArray>
<DataArray type="Float32" Name="creationTime" NumberOfComponents="1" format="ascii" >
0 
</DataArray>

</CellData>
<Points>
<DataArray type="Float32" Name="Coordinates" NumberOfComponents="3" format="ascii" >
0 0 -1.2 -0.276193 -0.380535 -1.37003 -0.546967 -0.763556 -1.54317 -0.817616 -1.14888 -1.71132 -1.08496 -1.53515 -1.88255 -1.393 -1.89785 -2.03605 -1.68788 -2.28227 -2.15963 -1.97246 -2.66169 -2.31789 -2.26421 -3.0573 -2.40942 -2.57311 -3.43792 -2.50797 -2.86979 -3.82453 -2.6198 -3.19752 -4.1713 -2.76928 -3.50513 -4.54033 -2.90784 -3.8038 -4.92229 -3.02991 -4.10757 -5.29887 -3.15604 -4.41119 -5.67573 -3.28171 -4.69892 -6.05872 -3.42499 -4.96135 -6.45678 -3.57559 -5.18993 -6.85979 -3.76356 -5.40834 -7.26339 -3.96207 -5.63514 -7.65902 -4.16709 -5.83218 -8.06849 -4.3757 -6.01562 -8.49125 -4.56966 -6.18147 -8.9135 -4.7799 -6.36469 -9.32606 -4.99488 -6.55612 -9.75623 -5.16314 -6.7258 -10.1821 -5.36271 -6.89381 -10.6048 -5.57028 -7.07982 -11.0186 -5.78056 -7.21154 -11.4494 -5.99746 -7.36348 -11.8656 -6.22914 -7.5398 -12.2673 -6.469 -7.73811 -12.6355 -6.7431 -7.93519 -13.0044 -7.01705 -8.11903 -13.3629 -7.31321 -8.32084 -13.688 -7.63503 -8.49923 -13.9973 -7.98505 -8.68751 -14.302 -8.33388 -8.87963 -14.5735 -8.70723 -9.1068 -14.8405 -9.06376 -9.31867 -15.108 -9.42923 -9.53163 -15.3527 -9.80974 -9.72973 -15.61 -10.1899 -9.90385 -15.863 -10.5844 -10.0736 -16.1483 -10.9583 -10.1823 -16.3252 -11.1698 
</DataArray>
</Points>
<Lines>
<DataArray type="Int32" Name="connectivity" NumberOfComponents="1" format="ascii" >
0 1 2 3 4 5 6 7 8 9 10 11 12 13 14 15 16 17 18 19 20 21 22 23 24 25 26 27 28 29 30 31 32 33 34 35 36 37 38 39 40 41 42 43 44 45 
</DataArray>
<DataArray type="Int32" Name="offsets" NumberOfComponents="1" format="ascii" >
46 
</DataArray>

</Lines>
</Piece>
</PolyData>
</VTKFile>
