<?xml version="1.0"?><VTKFile type="PolyData" version="0.1" byte_order="LittleEndian">
<PolyData>
<Piece NumberOfLines="63" NumberOfPoints="975">
<PointData Scalars=" PointData">
<DataArray type="Float32" Name="time" NumberOfComponents="1" format="ascii" >
0 0.138139 0.438321 0.739754 0.784104 1.08698 1.38767 1.69309 1.97104 2.27894 2.58816 2.62144 2.93213 3.24416 3.28963 3.60321 3.91816 3.96803 4.28457 4.53318 4.85221 5.05195 5.37328 5.67306 5.99717 6.32273 6.33077 6.65785 6.95996 7.2899 7.53792 7.87051 8.20464 8.33309 8.66936 8.95779 9.29699 9.59236 9.93456 10.2207 10.5659 10.9127 10.9364 11.2851 11.6354 11.6438 11.9958 12.3496 12.4273 12.7832 13.0688 13.4279 13.7615 14.1241 14.3925 14.7583 15.076 15.4452 15.8163 15.9784 16.3523 16.7281 16.7291 17.1069 17.484 17.8658 18.1401 18.5254 18.8665 19.2556 19.6151 20.0083 20.4037 20.4786 20.8766 21.262 21.6643 22.0676 22.4744 22.8245 23.2356 23.6428 24.0586 24.4767 24.511 24.9318 25.2319 25.6569 26.0845 26.1512 26.5817 26.9196 27.3547 27.7252 28 7.69963 8.38792 9.0833 9.78589 10.4959 11.2133 11.9385 12.6716 13.4126 14.1619 14.9196 15.6858 16.4609 17.2449 18.0381 18.8407 19.6529 20.475 21.3073 22.1499 23.0031 23.8672 24.7425 25.6292 26.5278 27.4384 28 8.41713 9.04993 9.68923 10.3352 10.9879 11.6475 12.3143 12.9882 13.6695 14.3584 15.055 15.7594 16.472 17.1927 17.922 18.6599 19.4066 20.1625 20.9276 21.7022 22.4867 23.2811 24.0858 24.9011 25.7272 26.5644 27.413 28 9.08818 9.78047 10.4799 11.1866 11.9006 12.6223 13.3517 14.089 14.8344 15.588 16.3501 17.1208 17.9003 18.6889 19.4867 20.2939 21.1109 21.9378 22.7748 23.6223 24.4805 25.3496 26.23 27.1219 28 9.73737 10.4376 11.1451 11.8599 12.5821 13.3121 14.0499 14.7956 15.5496 16.3118 17.0827 17.8622 18.6507 19.4483 20.2553 21.0718 21.8982 22.7345 23.5812 24.4384 25.3065 26.1856 27.0761 27.9782 28 10.4619 11.3144 12.1757 13.0459 13.9252 14.8139 15.7121 16.62 17.5379 18.4659 19.4044 20.3534 21.3134 22.2844 23.2668 24.2609 25.267 26.2852 27.316 28 11.207 11.8531 12.506 13.1656 13.8321 14.5057 15.1865 15.8747 16.5704 17.2738 17.9851 18.7045 19.4321 20.1681 20.9128 21.6663 22.4288 23.2006 23.9819 24.773 25.574 26.3852 27.207 28 11.9642 12.6766 13.3964 14.1236 14.8585 15.6011 16.3517 17.1104 17.8775 18.653 19.4373 20.2304 21.0326 21.844 22.6651 23.4958 24.3365 25.1874 26.0488 26.921 27.8041 28 12.5957 13.2406 13.8921 14.5504 15.2156 15.8879 16.5673 17.2542 17.9485 18.6505 19.3604 20.0784 20.8045 21.5391 22.2823 23.0343 23.7953 24.5656 25.3453 26.1348 26.9342 27.7438 28 13.1759 13.7247 14.2792 14.8394 15.4055 15.9777 16.5559 17.1404 17.7313 18.3288 18.9329 19.5439 20.1619 20.787 21.4195 22.0595 22.7072 23.3627 24.0263 24.6981 25.3785 26.0675 26.7654 27.4725 28 13.8712 14.4662 15.0674 15.6747 16.2885 16.9087 17.5357 18.1694 18.81 19.4577 20.1127 20.7751 21.4451 22.1229 22.8086 23.5024 24.2046 24.9153 25.6347 26.3631 27.1007 27.8477 28 14.6083 15.3283 16.0557 16.7906 17.5333 18.2839 19.0425 19.8093 20.5845 21.3683 22.1609 22.9624 23.7732 24.5933 25.423 26.2626 27.1123 27.9723 28 15.3141 16.0389 16.7712 17.511 18.2587 19.0142 19.7779 20.5498 21.3302 22.1192 22.917 23.7239 24.5401 25.3657 26.2009 27.0461 27.9015 28 15.9631 16.7088 17.4621 18.2233 18.9924 19.7697 20.5554 21.3495 22.1523 22.9641 23.7849 24.615 25.4546 26.304 27.1633 28 16.8571 17.5368 18.2235 18.9173 19.6184 20.3269 21.043 21.7668 22.4986 23.2385 23.9867 24.7434 25.5087 26.2829 27.0662 27.8587 28 17.5604 18.1255 18.6964 19.2732 19.8561 20.4452 21.0405 21.6424 22.2508 22.866 23.488 24.1171 24.7534 25.3971 26.0483 26.7073 27.3741 28 18.2755 19.0104 19.7529 20.5031 21.2612 22.0274 22.8017 23.5845 24.3758 25.1758 25.9849 26.8031 27.6306 28 18.9843 19.6332 20.2887 20.951 21.6203 22.2966 22.9802 23.6713 24.3699 25.0762 25.7904 26.5128 27.2434 27.9824 28 19.7928 20.3859 20.9852 21.5907 22.2025 22.8208 23.4458 24.0775 24.7162 25.3619 26.0148 26.6751 27.343 28 20.5928 21.2389 21.8916 22.5511 23.2176 23.8911 24.5718 25.2599 25.9555 26.6589 27.3701 28 21.4802 22.1782 22.8834 23.596 24.316 25.0437 25.7791 26.5225 27.2741 28 22.2076 22.8963 23.592 24.295 25.0054 25.7233 26.4489 27.1824 27.9238 28 22.9941 23.6142 24.2407 24.8738 25.5134 26.1599 26.8132 27.4737 28 23.7114 24.3645 25.0244 25.691 26.3647 27.0455 27.7337 28 24.4893 25.0962 25.7093 26.3288 26.9548 27.5874 28 25.5181 26.1526 26.7936 27.4413 28 26.3753 27.1127 27.8577 28 27.2385 27.8619 28 27.9898 28 7 7.14626 7.47622 7.80757 7.8392 8.1721 8.50642 8.5331 8.86897 9.12579 9.46422 9.80412 9.86741 10.2091 10.5263 10.8709 11.217 11.2475 11.5953 11.8869 12.2375 12.5897 12.6 12.9538 13.3093 13.3916 13.749 14.1026 14.4633 14.7585 15.1222 15.4877 15.6385 16.0064 16.376 16.5068 16.8788 17.2526 17.3249 17.7008 18.0786 18.0857 18.4653 18.7689 19.1518 19.5367 19.6763 20.0637 20.4377 20.8289 21.2011 21.5962 21.902 22.3006 22.6971 23.0998 23.4487 23.8553 24.2025 24.6131 24.9466 25.3611 25.7706 26.1895 26.6107 26.6745 27.0982 27.5023 27.9306 28 14.8802 15.602 16.3313 17.0681 17.8127 18.5652 19.3257 20.0945 20.8717 21.6575 22.4521 23.2557 24.0686 24.8908 25.7227 26.5644 27.4163 28 15.6455 16.4807 17.3246 18.1772 19.0387 19.9094 20.7895 21.679 22.5783 23.4876 24.407 25.3369 26.2774 27.2288 28 16.4126 17.0228 17.6393 18.2622 18.8916 19.5278 20.1707 20.8206 21.4776 22.1419 22.8136 23.493 24.1801 24.8752 25.5784 26.29 27.0101 27.739 28 17.0683 17.7329 18.4043 19.0827 19.7682 20.4609 21.1611 21.8689 22.5844 23.3078 24.0394 24.7792 25.5275 26.2845 27.0503 27.8253 28 17.8897 18.663 19.4444 20.2338 21.0315 21.8377 22.6525 23.4762 24.3089 25.1508 26.0021 26.8631 27.7339 28 18.6201 19.2466 19.8796 20.5192 21.1654 21.8186 22.4787 23.1459 23.8205 24.5026 25.1923 25.8898 26.5953 27.3089 28 19.4203 20.0564 20.699 21.3482 22.0043 22.6673 23.3375 24.0149 24.6997 25.3921 26.0923 26.8004 27.5166 28 20.1304 20.8887 21.6548 22.4288 23.211 24.0014 24.8003 25.6079 26.4243 27.2498 28 20.9232 21.4462 21.9745 22.5084 23.0478 23.593 24.144 24.701 25.2641 25.8334 26.4091 26.9913 27.5802 28 21.8042 22.5515 23.3064 24.0692 24.84 25.619 26.4063 27.2022 28 22.5964 23.1644 23.7382 24.318 24.9039 25.496 26.0944 26.6993 27.3109 27.9292 28 23.3278 23.9979 24.6748 25.3587 26.0498 26.7483 27.4542 28 24.3105 24.9485 25.5931 26.2443 26.9024 27.5675 28 25.2811 25.9706 26.6672 27.371 28 26.197 26.8473 27.5044 28 27.0497 27.7607 28 27.8162 28 14 14.1805 14.4745 14.6865 14.9827 15.2688 15.5674 15.8238 16.1249 16.4133 16.7169 17.0218 17.0285 17.3348 17.5967 17.9055 18.2157 18.2677 18.5795 18.7635 19.0775 19.3004 19.6169 19.9347 19.9704 20.2899 20.6004 20.9228 21.2467 21.2549 21.5804 21.8705 22.1989 22.5288 22.6724 23.0045 23.2957 23.6308 23.9676 23.9863 24.3247 24.5371 24.8783 25.2059 25.5504 25.7168 26.0638 26.4066 26.757 27.1092 27.1207 27.4747 27.8305 27.8902 28 20.5087 21.2263 21.9513 22.6838 23.4239 24.172 24.928 25.6922 26.4648 27.246 28 21.063 21.7653 22.4749 23.1918 23.9162 24.6484 25.3884 26.1364 26.8925 27.6571 28 21.7011 22.3877 23.0814 23.7823 24.4905 25.2063 25.9297 26.6609 27.4002 28 22.31 22.958 23.6127 24.2741 24.9425 25.618 26.3008 26.9909 27.6886 28 22.9571 23.5591 24.1673 24.7818 25.4028 26.0304 26.6646 27.3058 27.954 28 23.633 24.2206 24.8142 25.414 26.0201 26.6327 27.2517 27.8776 28 24.2579 24.9366 25.6223 26.3151 27.0152 27.7227 28 24.9963 25.6424 26.2952 26.9548 27.6213 28 25.5425 26.2946 27.0545 27.8222 28 26.1343 26.7485 27.369 27.9959 28 26.8736 27.5545 28 27.5694 28 21 21.1242 21.4126 21.6047 21.8951 22.1867 22.2492 22.5424 22.8369 22.8459 23.1417 23.3896 23.6878 23.9873 24.0342 24.3352 24.6376 24.6396 24.9433 25.2485 25.3117 25.6185 25.7341 26.0428 26.3529 26.414 26.7259 27.0014 27.3159 27.6238 27.9413 28 27.0295 27.5827 28 27.5539 28 
</DataArray>

</PointData>
<CellData Scalars=" CellData">
<DataArray type="Float32" Name="radius" NumberOfComponents="1" format="ascii" >
0.115682 0.0550016 0.047712 0.0572864 0.0436387 0.0551136 0.0506498 0.0574949 0.0548052 0.0440759 0.0477735 0.0520734 0.0497933 0.0460383 0.050623 0.0390709 0.050476 0.0520804 0.0423709 0.041474 0.0525651 0.0446629 0.045903 0.0455077 0.0536271 0.0519183 0.0473955 0.0423585 0.0494814 0.122106 0.0609391 0.0424436 0.0527546 0.0471086 0.0538221 0.0490484 0.0586937 0.0488467 0.0535983 0.0544972 0.0513873 0.0611276 0.0522711 0.0446328 0.0480227 0.0553074 0.053179 0.113779 0.0602562 0.0561324 0.039825 0.0536523 0.0551859 0.0585562 0.054954 0.0509706 0.0506663 0.0564083 0.0513198 0.0434822 0.146311 0.0476596 0.0504081 
</DataArray>
<DataArray type="Float32" Name="subType" NumberOfComponents="1" format="ascii" >
1 2 2 2 2 2 2 2 2 2 2 2 2 2 2 2 2 2 2 2 2 2 2 2 2 2 2 2 2 4 2 2 2 2 2 2 2 2 2 2 2 2 2 2 2 2 2 4 2 2 2 2 2 2 2 2 2 2 2 2 4 2 2 
</DataArray>
<DataArray type="Float32" Name="creationTime" NumberOfComponents="1" format="ascii" >
0 7.69963 8.41713 9.08818 9.73737 10.4619 11.207 11.9642 12.5957 13.1759 13.8712 14.6083 15.3141 15.9631 16.8571 17.5604 18.2755 18.9843 19.7928 20.5928 21.4802 22.2076 22.9941 23.7114 24.4893 25.5181 26.3753 27.2385 27.9898 7 14.8802 15.6455 16.4126 17.0683 17.8897 18.6201 19.4203 20.1304 20.9232 21.8042 22.5964 23.3278 24.3105 25.2811 26.197 27.0497 27.8162 14 20.5087 21.063 21.7011 22.31 22.9571 23.633 24.2579 24.9963 25.5425 26.1343 26.8736 27.5694 21 27.0295 27.5539 
</DataArray>

</CellData>
<Points>
<DataArray type="Float32" Name="Coordinates" NumberOfComponents="3" format="ascii" >
0 0 -3 0.281893 -0.298309 -3.2112 0.793396 -1.08166 -3.56436 1.31845 -1.85133 -3.92758 1.39673 -1.96341 -3.98102 1.74506 -2.71048 -4.54719 2.09512 -3.4473 -5.1057 2.52688 -4.17242 -5.64215 2.92798 -4.82643 -6.12475 3.36243 -5.52465 -6.69374 3.82855 -6.19642 -7.26946 3.87866 -6.26863 -7.33115 4.21611 -6.93376 -7.99729 4.44168 -7.53331 -8.76517 4.47493 -7.62117 -8.87611 4.4432 -8.23307 -9.66641 4.45301 -8.75273 -10.5207 4.4543 -8.83587 -10.655 4.49961 -9.34797 -11.5127 4.54617 -9.77911 -12.1639 4.66556 -10.3083 -13.004 4.74704 -10.5551 -13.5711 4.84709 -10.8802 -14.5115 4.97412 -11.1414 -15.3939 5.10426 -11.4052 -16.3496 5.16258 -11.5698 -17.3343 5.16386 -11.5739 -17.3585 5.15464 -11.6659 -18.3542 5.30476 -11.5968 -19.2589 5.48459 -11.5467 -20.2414 5.56656 -11.4842 -20.983 5.7406 -11.4169 -21.9654 5.88263 -11.3001 -22.9483 5.94669 -11.2683 -23.3248 6.07815 -11.1795 -24.3122 6.14366 -11.0723 -25.1569 6.1479 -10.9527 -26.1497 6.11349 -10.8745 -27.0124 6.12953 -10.7756 -28.0074 6.1237 -10.7223 -28.8382 6.06707 -10.5932 -29.8282 5.95431 -10.5069 -30.8181 5.94574 -10.5007 -30.8855 5.94154 -10.3462 -31.8735 5.92546 -10.1964 -32.8621 5.92506 -10.1929 -32.8857 5.87729 -10.1125 -33.8813 5.81164 -10.0537 -34.8774 5.80662 -10.0444 -35.0962 5.7938 -10.0011 -36.0952 5.86101 -9.9619 -36.8902 5.95841 -9.84408 -37.8785 6.05124 -9.73802 -38.7923 6.06163 -9.6669 -39.7897 6.06858 -9.69861 -40.5262 6.05221 -9.72643 -41.5257 6.04846 -9.69824 -42.3898 5.98958 -9.64104 -43.3864 5.91293 -9.60122 -44.3827 5.93793 -9.59564 -44.8172 5.97423 -9.56134 -45.8159 5.99818 -9.50705 -46.8142 5.99822 -9.50687 -46.817 6.00592 -9.33021 -47.8012 5.88002 -9.17781 -48.7745 5.70951 -9.08442 -49.7554 5.58014 -9.02051 -50.4561 5.43155 -8.95209 -51.4426 5.34866 -8.83012 -52.3112 5.1842 -8.74927 -53.2943 5.13415 -8.64824 -54.2065 5.07951 -8.54855 -55.2 5.07726 -8.54262 -56.2 5.06518 -8.5459 -56.3886 5.02931 -8.56591 -57.3877 4.99311 -8.56394 -58.3505 4.98992 -8.54821 -59.3504 5.05289 -8.5 -60.3443 5.0741 -8.45036 -61.3428 5.10453 -8.4202 -62.198 5.1131 -8.41699 -63.198 5.11568 -8.43336 -64.1827 5.06695 -8.44081 -65.1815 5.01629 -8.44829 -66.1801 5.01656 -8.44921 -66.2618 5.02277 -8.45741 -67.2617 5.00449 -8.49751 -67.9701 4.94478 -8.52875 -68.9678 4.89614 -8.55083 -69.9664 4.88957 -8.55705 -70.1216 4.84639 -8.60019 -71.1198 4.77826 -8.64074 -71.8964 4.67446 -8.56141 -72.8879 4.53523 -8.47036 -73.7183 4.46087 -8.43447 -74.338 0.281893 -0.298309 -3.2112 0.945316 0.0316616 -2.53964 1.60413 0.342108 -1.85438 2.25258 0.635879 -1.15209 2.81082 0.864998 -0.354673 3.40739 0.99215 0.437758 4.00397 1.11764 1.23044 4.62884 1.19061 2.00774 5.25713 1.29483 2.77872 5.84544 1.38615 3.58217 6.42235 1.4525 4.39629 6.93628 1.47051 5.25393 7.48676 1.527 6.08686 8.03906 1.59479 6.91774 8.56544 1.69863 7.76163 9.062 1.90439 8.60489 9.49063 2.00379 9.50289 10.0067 2.25039 10.3231 10.5942 2.47775 11.0998 11.278 2.72156 11.7875 11.9663 2.97691 12.4665 12.5852 3.35754 13.1536 13.2754 3.69085 13.7959 13.9462 4.01206 14.4644 14.5257 4.35668 15.2029 15.1232 4.71949 15.918 15.4903 4.93484 16.355 1.39673 -1.96341 -3.98102 0.805293 -2.50456 -3.38323 0.256606 -3.05626 -2.75508 -0.360996 -3.66257 -2.25412 -1.07889 -4.16135 -1.76848 -1.80648 -4.71266 -1.36023 -2.53279 -5.26268 -0.94797 -3.25723 -5.80975 -0.528564 -4.03432 -6.37628 -0.254395 -4.87605 -6.88559 -0.0752459 -5.60961 -7.56515 -0.0657807 -6.35916 -8.22708 -0.0619058 -7.14186 -8.84943 -0.0699127 -8.00247 -9.35605 -0.0180516 -8.8612 -9.86595 0.0326954 -9.73799 -10.3301 0.158363 -10.615 -10.7944 0.28216 -11.48 -11.2914 0.2138 -12.3645 -11.7567 0.249532 -13.2421 -12.2342 0.291652 -14.1327 -12.6887 0.305743 -15.0139 -13.16 0.269343 -15.9169 -13.5861 0.213908 -16.8045 -14.0453 0.178219 -17.6269 -14.6131 0.140519 -18.4422 -15.1767 0.272852 -19.283 -15.7094 0.369174 -19.8823 -16.0386 0.374424 2.09512 -3.4473 -5.1057 1.43914 -3.43752 -5.86041 0.866135 -3.43824 -6.67996 0.385917 -3.26795 -7.54042 0.0185667 -3.04855 -8.44426 -0.304764 -2.86184 -9.37194 -0.563371 -2.62249 -10.3078 -0.831744 -2.22955 -11.1873 -1.06618 -1.84836 -12.0816 -1.37431 -1.43814 -12.94 -1.69438 -1.0092 -13.7847 -1.91819 -0.744796 -14.7228 -2.15418 -0.471245 -15.6552 -2.38352 -0.198551 -16.5896 -2.61585 0.0369533 -17.5333 -2.92641 0.13107 -18.4792 -3.20436 0.176543 -19.4387 -3.52388 0.301804 -20.378 -3.81557 0.443876 -21.3239 -4.13857 0.568909 -22.262 -4.46644 0.718627 -23.1948 -4.81871 0.916445 -24.1095 -5.15934 1.14083 -25.0225 -5.52348 1.3752 -25.9239 -6.00381 1.48509 -26.7615 2.92798 -4.82643 -6.12475 3.72658 -4.22482 -6.10786 4.50595 -3.59966 -6.06588 5.30138 -3.00991 -5.92627 6.12436 -2.46727 -5.75821 6.96449 -1.9385 -5.6374 7.87203 -1.58445 -5.41156 8.77867 -1.23738 -5.17165 9.62201 -0.749901 -4.9455 10.4841 -0.281305 -4.7527 11.3446 0.215818 -4.64138 12.2483 0.612117 -4.47912 13.1561 1.00584 -4.33431 14.0469 1.43418 -4.18272 14.9474 1.84514 -4.0405 15.8978 2.12909 -3.91418 16.828 2.44082 -3.72036 17.7266 2.87961 -3.72626 18.6212 3.32584 -3.7023 19.5201 3.76268 -3.66804 20.3698 4.28226 -3.75721 21.2867 4.67759 -3.8126 22.1609 5.16265 -3.7916 23.0354 5.64758 -3.77647 23.0563 5.65921 -3.77608 3.87866 -6.26863 -7.33115 4.54228 -5.73275 -7.85311 5.21064 -5.24734 -8.41675 5.73187 -4.68031 -9.05455 6.19283 -4.02014 -9.64758 6.58034 -3.3117 -10.2375 6.88505 -2.52347 -10.7721 7.23058 -1.76366 -11.3228 7.49984 -0.894232 -11.7371 7.60992 -0.0340817 -12.2351 7.79359 0.850906 -12.6629 7.97605 1.7369 -13.0892 8.15306 2.65324 -13.4484 8.32638 3.57807 -13.787 8.4868 4.50234 -14.1334 8.46955 5.47405 -14.3689 8.55478 6.44134 -14.6079 8.64786 7.41512 -14.8154 8.7511 8.38416 -15.0397 8.83216 9.02615 -15.1524 4.47493 -7.62117 -8.87611 4.01393 -8.50247 -8.77215 3.47266 -9.34203 -8.72569 2.9291 -10.1802 -8.68018 2.29129 -10.9502 -8.69549 1.64212 -11.7094 -8.64904 0.900298 -12.3681 -8.52332 0.120866 -12.9515 -8.2948 -0.691814 -13.4814 -8.0524 -1.56178 -13.9572 -7.9232 -2.48174 -14.3467 -7.87902 -3.40182 -14.7361 -7.8354 -4.29927 -15.1767 -7.85571 -5.22032 -15.529 -7.68969 -6.13289 -15.9373 -7.66823 -7.07486 -16.2648 -7.7422 -8.02479 -16.5677 -7.8189 -8.96208 -16.9161 -7.82718 -9.89573 -17.2736 -7.85045 -10.7592 -17.7696 -7.75893 -11.6462 -18.2026 -7.59813 -12.5229 -18.6521 -7.427 -13.3426 -19.195 -7.24456 -14.1211 -19.7024 -7.0335 4.4543 -8.83587 -10.655 3.45748 -8.91373 -10.672 2.49242 -9.14884 -10.7876 1.5443 -9.34028 -11.0415 0.583664 -9.48667 -11.2776 -0.394934 -9.69242 -11.2742 -1.3715 -9.88063 -11.3786 -2.34693 -10.0726 -11.4867 -3.31541 -10.2893 -11.6096 -4.28205 -10.5143 -11.732 -5.25543 -10.6899 -11.8792 -6.20361 -10.9786 -12.0119 -7.14189 -11.2872 -12.168 -8.09223 -11.5696 -12.2989 -9.0085 -11.8916 -12.5371 -9.89973 -12.2892 -12.7554 -10.7972 -12.6815 -12.9572 -11.7183 -12.9749 -13.2132 -12.6386 -13.3109 -13.4132 -13.5457 -13.6685 -13.6354 -14.4496 -14.0013 -13.9039 -14.6498 -14.0788 -13.9531 4.54617 -9.77911 -12.1639 5.47179 -9.45349 -12.3568 6.39976 -9.12979 -12.5414 7.33674 -8.82701 -12.7157 8.24726 -8.41859 -12.7802 9.1576 -8.00862 -12.8368 10.0926 -7.66018 -12.9027 11.035 -7.36169 -13.0537 11.9917 -7.10559 -13.1922 12.9529 -6.87304 -13.3405 13.9323 -6.6761 -13.3841 14.9119 -6.47496 -13.39 15.8925 -6.29497 -13.3126 16.8862 -6.18655 -13.2835 17.8708 -6.02274 -13.222 18.8674 -5.95307 -13.1794 19.8662 -5.95267 -13.1301 20.8626 -5.88139 -13.1757 21.8567 -5.78243 -13.2207 22.8494 -5.66354 -13.2417 23.8458 -5.5795 -13.2517 24.8422 -5.65227 -13.2957 25.1559 -5.65713 -13.3006 4.74704 -10.5551 -13.5711 5.43914 -11.175 -13.2014 6.15701 -11.7778 -12.8531 6.7691 -12.4551 -12.4449 7.40167 -13.0689 -11.9726 8.08466 -13.5472 -11.4205 8.78169 -14.1279 -10.9999 9.40452 -14.7571 -10.535 9.92941 -15.3821 -9.95715 10.4496 -15.9539 -9.32282 10.9705 -16.5157 -8.68015 11.4913 -17.0997 -8.05744 12.074 -17.7065 -7.5168 12.6209 -18.3506 -6.98198 13.1483 -19.0011 -6.43548 13.7237 -19.6139 -5.89382 14.3493 -20.2131 -5.39415 15.0027 -20.8129 -4.93232 15.6037 -21.46 -4.46321 16.2078 -22.1277 -4.02819 16.8935 -22.6331 -3.50447 17.5643 -23.1203 -2.94533 18.2345 -23.607 -2.38494 18.914 -24.091 -1.8336 19.4302 -24.4938 -1.49404 4.97412 -11.1414 -15.3939 5.96254 -11.2134 -15.5275 6.89799 -11.5495 -15.6367 7.84514 -11.8603 -15.7165 8.79447 -12.1651 -15.793 9.77883 -12.333 -15.8463 10.7419 -12.5526 -16.0019 11.7149 -12.7826 -16.0209 12.6725 -13.0702 -16.0389 13.5972 -13.4507 -16.0243 14.5613 -13.7125 -15.9807 15.5364 -13.9297 -16.0252 16.507 -14.1686 -16.055 17.439 -14.5246 -16.1235 18.3673 -14.8561 -16.2916 19.3188 -15.1407 -16.4088 20.2698 -15.4295 -16.5195 21.2176 -15.7465 -16.553 22.156 -16.092 -16.542 23.0882 -16.4523 -16.5764 23.9787 -16.9063 -16.6066 24.8777 -17.3419 -16.6504 25.0599 -17.4295 -16.6581 5.16386 -11.5739 -17.3585 5.34751 -12.4597 -16.9324 5.43923 -13.3835 -16.5606 5.53618 -14.2856 -16.14 5.61573 -15.194 -15.7297 5.67776 -16.1107 -15.335 5.78043 -16.9755 -14.8434 5.91425 -17.8231 -14.3299 6.04417 -18.6524 -13.7865 6.17345 -19.5047 -13.2797 6.45662 -20.3363 -12.8018 6.75826 -21.2131 -12.4274 7.12747 -22.0825 -12.099 7.46184 -22.911 -11.6498 7.83581 -23.7071 -11.174 8.13727 -24.5256 -10.6849 8.41055 -25.3772 -10.2376 8.60889 -26.2529 -9.79747 8.61526 -26.2812 -9.7837 5.30476 -11.5968 -19.2589 6.30065 -11.5658 -19.1739 7.24287 -11.4352 -18.8654 8.18911 -11.3091 -18.5675 9.09451 -11.1432 -18.1767 9.95199 -10.9193 -17.7135 10.764 -10.597 -17.2269 11.5241 -10.288 -16.6553 12.262 -9.9307 -16.0826 12.9998 -9.57347 -15.5099 13.7403 -9.23265 -14.9307 14.3417 -8.9973 -14.1672 15.0278 -8.8197 -13.4617 15.6268 -8.65 -12.6792 16.2224 -8.47981 -11.8941 16.6749 -8.38238 -11.0077 17.1304 -8.28521 -10.1227 17.1793 -8.27314 -10.02 5.56656 -11.4842 -20.983 6.23206 -10.7627 -20.7921 6.94094 -10.0953 -20.5638 7.65985 -9.44707 -20.3129 8.36162 -8.7401 -20.225 9.03133 -7.9977 -20.207 9.79696 -7.36392 -20.0968 10.5329 -6.7197 -19.8885 11.3004 -6.11277 -19.6824 12.048 -5.51732 -19.388 12.8076 -4.89376 -19.2032 13.5433 -4.24674 -19.0031 14.4378 -3.84467 -18.8074 15.3634 -3.55636 -18.5624 16.287 -3.26315 -18.3152 17.2148 -3.10476 -18.1142 5.94669 -11.2683 -23.3248 5.897 -12.1637 -23.7673 5.93139 -13.0573 -24.215 5.95535 -13.9654 -24.633 5.97153 -14.8701 -25.0587 6.09466 -15.7932 -25.423 6.25824 -16.7412 -25.6961 6.30082 -17.6809 -26.0353 6.35468 -18.6259 -26.358 6.48202 -19.5794 -26.6312 6.61211 -20.5424 -26.8673 6.67552 -21.5212 -27.0618 6.73001 -22.4816 -27.3351 6.72277 -23.4607 -27.5385 6.66881 -24.4589 -27.5639 6.5982 -25.4556 -27.6049 6.58367 -25.6317 -27.6141 6.14366 -11.0723 -25.1569 5.56501 -11.8823 -25.0618 4.98421 -12.6903 -24.9624 4.42432 -13.5079 -24.8284 3.86877 -14.3322 -24.7188 3.23143 -15.0838 -24.5488 2.67465 -15.8675 -24.2734 2.16396 -16.6648 -23.9519 1.61851 -17.4261 -23.6013 1.03614 -18.196 -23.3402 0.448068 -18.9673 -23.0968 -0.129224 -19.7514 -22.8689 -0.706244 -20.5301 -22.6227 -1.2978 -21.2582 -22.2765 -1.82077 -22.0423 -21.942 -2.34906 -22.8671 -21.7407 -2.88867 -23.6707 -21.4894 -3.35872 -24.4512 -21.3152 6.11349 -10.8745 -27.0124 7.11322 -10.8561 -27.0268 8.10466 -10.9744 -26.9715 9.09872 -11.0005 -27.0771 10.0857 -10.8905 -27.1946 11.0215 -10.6478 -27.4502 11.9055 -10.4253 -27.8613 12.751 -10.1612 -28.3254 13.6104 -9.91823 -28.7753 14.4947 -9.79373 -29.2253 15.386 -9.75231 -29.677 16.2801 -9.67233 -30.1176 17.1451 -9.62972 -30.6176 17.5356 -9.59709 -30.8233 6.1237 -10.7223 -28.8382 5.74308 -11.6352 -28.9855 5.37963 -12.5571 -29.1196 4.98354 -13.469 -29.2271 4.57629 -14.3571 -29.4404 4.1813 -15.2484 -29.6629 3.77865 -16.1418 -29.862 3.35255 -17.0251 -30.0575 2.92844 -17.9085 -30.2568 2.44599 -18.7416 -30.5276 1.97794 -19.5852 -30.7906 1.51779 -20.4345 -31.0494 1.13878 -21.3059 -31.361 0.669695 -22.0143 -31.8883 0.658674 -22.0312 -31.9006 5.94574 -10.5007 -30.8855 5.36266 -9.68832 -30.8818 4.76922 -8.88373 -30.8603 4.26762 -8.02196 -30.7844 3.74311 -7.17258 -30.7257 3.2374 -6.34296 -30.4891 2.69476 -5.53314 -30.2661 2.15708 -4.72261 -30.0338 1.6178 -3.913 -29.8021 1.02871 -3.12918 -29.6056 0.402887 -2.38948 -29.3582 -0.157905 -1.62646 -29.0368 -0.701043 -0.835542 -28.755 -1.2116 -0.0344249 -28.5469 5.92506 -10.1929 -32.8857 5.37584 -9.37494 -32.7144 4.9541 -8.51672 -32.4218 4.60179 -7.66407 -32.036 4.16344 -6.89803 -31.5658 3.68162 -6.13348 -31.1377 3.08797 -5.38624 -30.839 2.46039 -4.64469 -30.6018 1.82429 -3.91048 -30.3645 1.05427 -3.31776 -30.1284 0.275563 -2.73769 -29.8894 -0.405836 -2.2638 -29.6081 5.80662 -10.0444 -35.0962 4.9446 -10.4179 -35.4389 4.14066 -10.761 -35.9246 3.37016 -11.1805 -36.4046 2.67287 -11.6389 -36.9557 2.05396 -12.1105 -37.5838 1.43074 -12.598 -38.1952 0.793425 -13.1043 -38.7762 0.112078 -13.6729 -39.2371 -0.553268 -14.1941 -39.6828 5.86101 -9.9619 -36.8902 5.14006 -10.6074 -37.1423 4.41467 -11.2563 -37.372 3.76883 -11.9714 -37.6395 3.10006 -12.711 -37.7149 2.42564 -13.4435 -37.8077 1.75023 -14.1755 -37.8972 1.08341 -14.9141 -37.9962 0.50065 -15.6802 -38.2673 0.443885 -15.761 -38.2932 6.05124 -9.73802 -38.7923 6.8217 -10.309 -39.0758 7.59529 -10.9056 -39.2896 8.43026 -11.4502 -39.3682 9.26425 -11.9965 -39.4458 10.0872 -12.5603 -39.5158 10.8435 -13.2002 -39.6519 11.6114 -13.8308 -39.7642 12.2211 -14.3311 -39.7918 6.06858 -9.69861 -40.5262 6.57428 -10.553 -40.6455 7.12135 -11.3899 -40.6625 7.66388 -12.2299 -40.6761 8.20686 -13.0695 -40.6893 8.69926 -13.938 -40.6327 9.16737 -14.8088 -40.482 9.36201 -15.1344 -40.4214 6.04846 -9.69824 -42.3898 5.23789 -9.19555 -42.0893 4.44646 -8.6914 -41.7437 3.67197 -8.18914 -41.3591 2.94396 -7.65427 -40.9302 2.21085 -7.12471 -40.5035 1.77053 -6.7661 -40.1945 5.93793 -9.59564 -44.8172 6.87683 -9.25628 -44.8746 7.81771 -8.91945 -44.8385 8.76916 -8.67093 -44.657 9.59353 -8.47071 -44.5557 5.99822 -9.50687 -46.817 6.73323 -10.1846 -46.7946 7.42729 -10.9 -46.7143 7.55825 -11.0367 -46.6999 5.88002 -9.17781 -48.7745 6.84083 -9.13999 -49.0491 7.05078 -9.14127 -49.1156 5.58014 -9.02051 -50.4561 5.5889 -9.00525 -50.4561 0 0 -3 0.245461 0.306753 -3.20821 0.792972 0.9516 -3.7415 1.30486 1.5818 -4.3253 1.35402 1.6418 -4.38058 1.84018 2.26113 -4.99708 2.38668 2.80612 -5.63295 2.42978 2.84761 -5.6855 2.99722 3.30545 -6.3699 3.40303 3.55447 -6.96453 3.94545 3.88133 -7.73845 4.44369 4.19257 -8.54769 4.53678 4.2504 -8.69761 4.98819 4.58805 -9.52358 5.31031 4.88787 -10.3368 5.57514 5.14116 -11.2673 5.83596 5.41198 -12.1939 5.85976 5.43473 -12.2755 6.2422 5.76093 -13.14 6.55848 6.02046 -13.868 6.82185 6.26103 -14.8023 6.94685 6.49423 -15.7666 6.95093 6.50125 -15.7946 7.06255 6.84466 -16.7271 7.15859 7.14943 -17.6747 7.18962 7.21277 -17.8946 7.32315 7.4837 -18.8479 7.45489 7.75187 -19.7861 7.54868 7.91223 -20.7687 7.62114 8.04135 -21.57 7.67078 8.17529 -22.5597 7.68828 8.29639 -23.5522 7.6997 8.34481 -23.9606 7.78189 8.38517 -24.9564 7.85812 8.40961 -25.9532 7.88828 8.42641 -26.304 7.87437 8.53484 -27.298 7.8443 8.63669 -28.2924 7.83931 8.66349 -28.4834 7.80279 8.78349 -29.4755 7.76352 8.90603 -30.4672 7.76291 8.90815 -30.4859 7.6867 9.01323 -31.4774 7.65543 9.10412 -32.2678 7.60263 9.20531 -33.2613 7.55023 9.30628 -34.2548 7.52074 9.34138 -34.6135 7.44541 9.44769 -35.605 7.33957 9.46993 -36.5595 7.18321 9.52963 -37.5454 7.15246 9.54158 -38.4916 7.11935 9.54016 -39.491 7.09852 9.47558 -40.2584 7.08294 9.52871 -41.2569 7.02092 9.4579 -42.242 6.95776 9.38492 -43.2373 6.98365 9.34952 -44.0983 6.98783 9.3201 -45.0978 6.99094 9.29471 -45.9472 7.03608 9.32607 -46.9456 7.07276 9.35109 -47.7528 7.02549 9.46658 -48.745 7.01614 9.51416 -49.7266 7.01143 9.54244 -50.7262 6.99592 9.56846 -51.7257 6.98951 9.56664 -51.8765 6.97786 9.57178 -52.8764 7.07137 9.69413 -53.8122 7.1764 9.8397 -54.7959 7.19383 9.86373 -54.9547 0.245461 0.306753 -3.20821 1.12199 0.17432 -2.74543 2.02459 0.0393635 -2.33665 2.93448 -0.0560456 -1.93292 3.84249 -0.160014 -1.52709 4.78629 -0.260833 -1.21232 5.75475 -0.42966 -1.02906 6.71558 -0.615412 -0.823379 7.67952 -0.778407 -0.613021 8.65483 -0.986769 -0.539814 9.62071 -1.17199 -0.358821 10.6116 -1.23717 -0.241184 11.6077 -1.27215 -0.159861 12.5938 -1.38164 -0.285241 13.5856 -1.50694 -0.309822 14.5736 -1.65905 -0.335434 15.532 -1.90672 -0.477414 16.1792 -2.05886 -0.612324 1.35402 1.6418 -4.38058 1.88897 2.15493 -3.70936 2.37023 2.73503 -3.0522 2.81335 3.34976 -2.3997 3.22465 3.92644 -1.69381 3.57472 4.54781 -0.992849 4.00926 5.18596 -0.357294 4.4568 5.90935 0.168459 4.89414 6.66945 0.649077 5.37839 7.37868 1.16141 5.83839 8.11969 1.6506 6.21444 8.88889 2.16724 6.61048 9.68142 2.63098 6.94371 10.5394 3.022 7.19375 11.2307 3.34276 2.42978 2.84761 -5.6855 1.61699 3.0513 -6.23129 0.827329 3.33287 -6.7764 0.0498955 3.54751 -7.36761 -0.724784 3.84211 -7.92714 -1.60833 4.10336 -8.31586 -2.4895 4.29426 -8.7484 -3.39764 4.51567 -9.10373 -4.26131 4.66749 -9.58438 -5.09701 4.86173 -10.0981 -5.94174 5.03364 -10.6049 -6.78211 5.21684 -11.115 -7.6364 5.43238 -11.588 -8.4803 5.53355 -12.1149 -9.32423 5.63336 -12.642 -10.1144 5.88356 -13.2014 -10.9773 6.08865 -13.6635 -11.8321 6.30116 -14.1368 -12.14 6.34139 -14.3093 3.40303 3.55447 -6.96453 3.27735 2.77051 -7.57249 3.14061 1.97868 -8.16773 2.99155 1.12455 -8.66596 2.70415 0.286424 -9.12958 2.55052 -0.611316 -9.54245 2.44585 -1.49935 -9.99016 2.35201 -2.36457 -10.4827 2.26199 -3.20964 -11.0097 2.12279 -4.04983 -11.5338 1.9375 -4.84528 -12.1108 1.7169 -5.55223 -12.7828 1.49732 -6.26591 -13.448 1.23002 -7.00398 -14.0675 0.961331 -7.74363 -14.6845 0.564148 -8.45411 -15.2654 0.4697 -8.61115 -15.394 4.53678 4.2504 -8.69761 5.41965 4.02825 -8.28387 6.28354 3.88683 -7.80046 7.15147 3.65604 -7.36065 8.04033 3.62856 -6.90329 8.93595 3.60511 -6.45908 9.82621 3.57645 -6.00454 10.7159 3.58352 -5.54806 11.6192 3.59188 -5.11909 12.5456 3.66695 -4.75021 13.5212 3.64999 -4.53129 14.4951 3.58639 -4.31318 15.4381 3.3851 -4.04809 15.7198 3.30921 -3.96519 5.31031 4.88787 -10.3368 4.94484 5.80764 -10.1938 4.50579 6.69252 -10.0382 4.08584 7.58847 -9.89355 3.63846 8.47908 -9.81194 3.28442 9.4107 -9.72981 2.90075 10.3309 -9.65193 2.46841 11.2306 -9.59145 1.97706 12.1 -9.54012 1.47965 12.9655 -9.48057 1.0198 13.8534 -9.47053 0.551869 14.7371 -9.45818 -0.00919956 15.5621 -9.52597 -0.533815 16.408 -9.62158 -1.03189 17.2238 -9.67726 5.85976 5.43473 -12.2755 5.03026 5.97976 -12.3975 4.20155 6.51241 -12.5693 3.39137 7.07884 -12.7201 2.54644 7.53713 -12.9959 1.68941 8.02589 -13.1591 0.840378 8.51764 -13.3523 -0.035054 8.97064 -13.5208 -0.906955 9.4468 -13.6351 -1.8005 9.87958 -13.7546 -2.69339 10.3175 -13.8594 -3.50626 10.8833 -13.9975 -4.37013 11.3656 -14.1429 -4.94705 11.6889 -14.2405 6.55848 6.02046 -13.868 6.05529 5.27263 -14.3011 5.57077 4.68914 -14.9529 5.0544 4.1127 -15.5862 4.54654 3.54129 -16.2308 4.01943 2.87302 -16.7558 3.52207 2.19498 -17.297 3.10307 1.4149 -17.7616 2.68666 0.628972 -18.2187 2.27199 -0.156759 -18.6777 1.91351 -0.875692 -19.0818 6.95093 6.50125 -15.7946 6.83263 5.5629 -16.1194 6.71719 4.61568 -16.4185 6.60744 3.67599 -16.7424 6.46544 2.73886 -17.0612 6.3193 1.80193 -17.3787 6.16219 0.842473 -17.6127 6.10032 -0.118474 -17.8824 6.07423 -1.08367 -18.1427 6.11774 -2.05918 -18.3583 6.10709 -2.98798 -18.7287 6.14174 -3.89247 -19.1538 6.17339 -4.7979 -19.5771 6.19877 -5.46421 -19.809 7.18962 7.21277 -17.8946 8.18705 7.20927 -17.9662 9.18414 7.26473 -18.0186 10.1769 7.25735 -18.1385 11.1732 7.30834 -18.2072 12.1711 7.3034 -18.272 13.1686 7.32213 -18.3399 14.1621 7.36872 -18.444 15.1502 7.4305 -18.5009 7.45489 7.75187 -19.7861 8.18158 7.08218 -19.9393 8.91388 6.40154 -19.961 9.61619 5.69211 -20.0197 10.3305 4.99694 -20.1004 11.0938 4.36673 -20.2426 11.8681 3.74097 -20.3368 12.6576 3.13987 -20.4606 13.4501 2.54013 -20.5716 14.2481 1.94706 -20.6788 14.339 1.87978 -20.6909 7.62114 8.04135 -21.57 7.67461 9.03982 -21.5559 7.64912 10.0344 -21.6566 7.76406 11.0199 -21.7818 7.86611 12.0057 -21.9149 8.0159 12.9927 -21.9728 8.26842 13.9427 -22.1566 8.44832 14.6749 -22.2908 7.6997 8.34481 -23.9606 8.59142 7.89472 -24.0081 9.44142 7.36825 -23.9903 10.2964 6.8504 -23.9601 11.104 6.26222 -23.9186 11.9148 5.6947 -24.0617 12.4692 5.38221 -24.1646 7.88828 8.42641 -26.304 7.5128 9.32065 -26.5476 7.34335 10.2979 -26.6752 7.3945 11.2906 -26.7848 7.44489 12.1568 -26.9586 7.83931 8.66349 -28.4834 8.69413 8.28436 -28.8378 9.58636 7.92983 -29.1174 10.2476 7.67121 -29.3514 7.76291 8.90815 -30.4859 8.62942 9.3829 -30.64 8.91742 9.54333 -30.6951 7.65543 9.10412 -32.2678 7.6393 8.84413 -32.2873 0 0 -3 0.342618 0.411766 -3.30387 0.857912 1.10256 -3.8111 1.19734 1.57837 -4.22902 1.68905 2.19086 -4.84795 2.16402 2.76404 -5.45711 2.613 3.38354 -6.10103 2.99319 3.92173 -6.64599 3.47157 4.56261 -7.24635 3.90705 5.19343 -7.81441 4.3065 5.87594 -8.42647 4.67522 6.58003 -9.03335 4.68325 6.59522 -9.04655 5.0583 7.2833 -9.66775 5.33385 7.85626 -10.2347 5.63806 8.53049 -10.9077 5.91402 9.19658 -11.6006 5.95939 9.30381 -11.7204 6.2388 9.92904