<?xml version="1.0"?><VTKFile type="PolyData" version="0.1" byte_order="LittleEndian">
<PolyData>
<Piece NumberOfLines="16" NumberOfPoints="174">
<PointData Scalars=" PointData">
<DataArray type="Float32" Name="time" NumberOfComponents="1" format="ascii" >
0 0.11387 0.228208 0.343019 0.359292 0.474648 0.590486 0.607863 0.724258 0.841144 0.958524 1 0 0.113783 0.22786 0.342233 0.456902 0.571871 0.687139 0.80271 0.918584 1 0 0.113758 0.227761 0.342009 0.456504 0.571247 0.665016 0.780211 0.895656 1 0 0.113833 0.22806 0.342685 0.457709 0.573137 0.68897 0.805211 0.921864 0.970695 1 0 0.113797 0.17171 0.285994 0.400604 0.515541 0.630806 0.746403 0.862333 0.951237 1 0 0.113794 0.227904 0.342332 0.357963 0.472754 0.587868 0.703304 0.819066 0.935156 1 0 0.113844 0.228104 0.342785 0.457888 0.573418 0.689376 0.805768 0.922595 0.971011 1 0 0.114037 0.228882 0.283111 0.399165 0.516057 0.612536 0.730983 0.850303 0.970509 0.999397 1 0 0.113748 0.22772 0.341917 0.45634 0.57099 0.685867 0.800973 0.916308 1 0 0.0313291 0.145089 0.259008 0.373017 0.487256 0.601657 0.716218 0.819411 0.93428 1 0 0.11391 0.228371 0.343389 0.458968 0.575115 0.691835 0.809133 0.927016 1 0 0.113832 0.228057 0.342677 0.457696 0.573116 0.68894 0.805171 0.921811 1 0 0.0260343 0.139938 0.25421 0.368854 0.48387 0.599263 0.616236 0.732063 0.848271 0.964863 0.992597 1 0 0.113735 0.227669 0.341803 0.456136 0.570669 0.674853 0.789771 0.904893 0.972243 1 0 0.113785 0.227868 0.342252 0.456936 0.571924 0.687217 0.748538 0.8643 0.980371 1 0 0.113733 0.22766 0.341781 0.433675 0.548148 0.662817 0.777684 0.892747 1 
</DataArray>

</PointData>
<CellData Scalars=" CellData">
<DataArray type="Float32" Name="radius" NumberOfComponents="1" format="ascii" >
0.05 0.05 0.05 0.05 0.05 0.05 0.05 0.05 0.05 0.05 0.05 0.05 0.05 0.05 0.05 0.05 
</DataArray>
<DataArray type="Float32" Name="subType" NumberOfComponents="1" format="ascii" >
1 4 4 4 4 4 4 4 4 4 4 4 4 4 4 4 
</DataArray>
<DataArray type="Float32" Name="creationTime" NumberOfComponents="1" format="ascii" >
0 0 0 0 0 0 0 0 0 0 0 0 0 0 0 0 
</DataArray>

</CellData>
<Points>
<DataArray type="Float32" Name="Coordinates" NumberOfComponents="3" format="ascii" >
0 0 -3 0.045693 0.189515 -3.15651 0.0639933 0.369256 -3.32931 0.051974 0.526 -3.5237 0.0518527 0.547997 -3.55137 -0.0405238 0.690181 -3.73508 -0.13241 0.846322 -3.90735 -0.146541 0.869724 -3.93289 -0.2359 1.03816 -4.09458 -0.325481 1.20728 -4.25544 -0.434288 1.38672 -4.39132 -0.472574 1.44556 -4.44453 0 0 -3 -0.159694 0.065021 -3.18102 -0.218443 0.161582 -3.40402 -0.256187 0.188111 -3.64972 -0.35845 0.17527 -3.87749 -0.460957 0.163164 -4.10518 -0.604159 0.189353 -4.30843 -0.750535 0.215686 -4.50937 -0.873174 0.301435 -4.70964 -0.965765 0.36727 -4.8431 0 0 -3 -0.112056 -0.218288 -3.04789 -0.27487 -0.406275 -3.07344 -0.478663 -0.524676 -3.1568 -0.691934 -0.637937 -3.22151 -0.879161 -0.770525 -3.32084 -1.04589 -0.87652 -3.37127 -1.15811 -1.04745 -3.51511 -1.26378 -1.24253 -3.63033 -1.34634 -1.43238 -3.7197 0 0 -3 -0.11159 -0.223499 -3.00978 -0.177968 -0.414075 -3.15734 -0.257668 -0.579003 -3.32748 -0.351 -0.748644 -3.48563 -0.528017 -0.88781 -3.59425 -0.747708 -0.975768 -3.67486 -0.872919 -1.12435 -3.83217 -1.02533 -1.26482 -3.97195 -1.06324 -1.34402 -4.02841 -1.08145 -1.39768 -4.05493 0 0 -3 -0.200955 -0.111866 -3.098 -0.297487 -0.179199 -3.1456 -0.494943 -0.293418 -3.2479 -0.698342 -0.416017 -3.32599 -0.900387 -0.541039 -3.40376 -1.04532 -0.712464 -3.51379 -1.14428 -0.904261 -3.63997 -1.25131 -1.05753 -3.80596 -1.32275 -1.16826 -3.94455 -1.38011 -1.19787 -4.02699 0 0 -3 -0.0816394 0.233787 -2.96567 -0.154081 0.471494 -2.93832 -0.230991 0.700896 -2.8754 -0.240304 0.733123 -2.86929 -0.309616 0.969338 -2.82572 -0.299024 1.21842 -2.80719 -0.280388 1.46562 -2.83956 -0.232944 1.69924 -2.91487 -0.191112 1.93287 -2.9934 -0.173489 2.05944 -3.04891 0 0 -3 -0.23411 0.0392493 -3.07843 -0.462575 0.0869949 -3.16801 -0.690407 0.139253 -3.25668 -0.893551 0.195755 -3.39099 -1.04191 0.274027 -3.57636 -1.17905 0.268638 -3.78532 -1.27843 0.27018 -4.01471 -1.32721 0.297703 -4.25836 -1.35061 0.281834 -4.35775 -1.35988 0.271698 -4.418 0 0 -3 -0.245824 -0.00597427 -2.95489 -0.488059 -0.0527674 -2.91448 -0.602782 -0.0770599 -2.90826 -0.835255 -0.144716 -2.97055 -1.04203 -0.249232 -3.06446 -1.20673 -0.343762 -3.14165 -1.41127 -0.457989 -3.22892 -1.63465 -0.532381 -3.31297 -1.84985 -0.555539 -3.43808 -1.90103 -0.559283 -3.46881 -1.90209 -0.559366 -3.46945 0 0 -3 -0.140335 -0.193944 -3.07205 -0.253188 -0.379015 -3.1966 -0.466234 -0.501884 -3.24149 -0.648431 -0.672926 -3.2345 -0.841774 -0.825868 -3.19294 -1.03844 -0.979931 -3.18363 -1.21688 -1.15207 -3.21571 -1.39824 -1.32343 -3.23131 -1.53805 -1.42008 -3.29383 0 0 -3 0.0479525 0.0472352 -3.01477 0.190709 0.244513 -2.95818 0.344785 0.435458 -2.91022 0.536713 0.566276 -2.81816 0.741694 0.705391 -2.78455 0.90724 0.891634 -2.80474 1.06362 1.08116 -2.85083 1.2188 1.24385 -2.84556 1.32228 1.46881 -2.87995 1.38271 1.58373 -2.93958 0 0 -3 0.223904 0.102835 -2.95767 0.456119 0.194842 -2.94714 0.681571 0.302851 -2.94942 0.911419 0.391697 -2.99157 1.14118 0.480987 -3.03325 1.3709 0.56991 -3.07595 1.60014 0.650123 -3.13523 1.74228 0.792727 -3.28342 1.83523 0.876968 -3.37302 0 0 -3 -0.198566 0.133123 -3.07314 -0.393709 0.28716 -3.09945 -0.624491 0.375517 -3.1373 -0.840594 0.423676 -3.2534 -1.06972 0.514779 -3.29464 -1.2998 0.602192 -3.33849 -1.54026 0.663172 -3.36948 -1.77256 0.753979 -3.35241 -1.91598 0.839122 -3.36249 0 0 -3 0.00997158 0.0529498 -3.01936 0.0115541 0.294158 -3.08506 0.0661768 0.511523 -3.19582 0.111965 0.71382 -3.33539 0.149848 0.898255 -3.49986 0.198196 1.02723 -3.70849 0.206622 1.04699 -3.73825 0.254262 1.14962 -3.96118 0.23218 1.24748 -4.19017 0.230571 1.34304 -4.42118 0.234272 1.36706 -4.47532 0.235625 1.37247 -4.49014 0 0 -3 0.00639545 -0.233155 -3.08999 0.000822429 -0.453623 -3.20773 0.0118419 -0.682544 -3.3076 0.0539446 -0.890915 -3.43916 0.0334082 -1.08122 -3.59998 0.000146123 -1.1955 -3.7933 -0.0419846 -1.31318 -4.00982 -0.04456 -1.43895 -4.22586 -0.0463725 -1.51208 -4.35228 -0.0468455 -1.54184 -4.40454 0 0 -3 -0.110661 0.0468332 -3.21923 -0.229334 0.114637 -3.42856 -0.35041 0.175967 -3.63851 -0.455045 0.23719 -3.85715 -0.492957 0.262623 -4.10294 -0.473965 0.391033 -4.3166 -0.461315 0.459004 -4.42987 -0.468622 0.51302 -4.67385 -0.470617 0.591411 -4.91124 -0.466007 0.606119 -4.95054 0 0 -3 -0.231441 -0.0791313 -3.0517 -0.445815 -0.119894 -3.1737 -0.645347 -0.210821 -3.29378 -0.81811 -0.283982 -3.36589 -1.04624 -0.352671 -3.44165 -1.27658 -0.422039 -3.50969 -1.49619 -0.505517 -3.59515 -1.73187 -0.567967 -3.65041 -1.95199 -0.631803 -3.69038 
</DataArray>
</Points>
<Lines>
<DataArray type="Int32" Name="connectivity" NumberOfComponents="1" format="ascii" >
0 1 2 3 4 5 6 7 8 9 10 11 12 13 14 15 16 17 18 19 20 21 22 23 24 25 26 27 28 29 30 31 32 33 34 35 36 37 38 39 40 41 42 43 44 45 46 47 48 49 50 51 52 53 54 55 56 57 58 59 60 61 62 63 64 65 66 67 68 69 70 71 72 73 74 75 76 77 78 79 80 81 82 83 84 85 86 87 88 89 90 91 92 93 94 95 96 97 98 99 100 101 102 103 104 105 106 107 108 109 110 111 112 113 114 115 116 117 118 119 120 121 122 123 124 125 126 127 128 129 130 131 132 133 134 135 136 137 138 139 140 141 142 143 144 145 146 147 148 149 150 151 152 153 154 155 156 157 158 159 160 161 162 163 164 165 166 167 168 169 170 171 172 173 
</DataArray>
<DataArray type="Int32" Name="offsets" NumberOfComponents="1" format="ascii" >
12 22 32 43 54 65 76 88 98 109 119 129 142 153 164 174 
</DataArray>

</Lines>
</Piece>
</PolyData>
</VTKFile>
