<?xml version="1.0"?><VTKFile type="PolyData" version="0.1" byte_order="LittleEndian">
<PolyData>
<Piece NumberOfLines="4" NumberOfPoints="73">
<PointData Scalars=" PointData">
<DataArray type="Float32" Name="time" NumberOfComponents="1" format="ascii" >
0 0.019951 0.0399217 0.0599121 0.0799222 0.099952 0.120002 0.125672 0.145747 0.165842 0.185957 0.206092 0.226246 0.246421 0.266616 0.286831 0.307066 0.327322 0.341828 0.362118 0.382428 0.402759 0.42311 0.443482 0.463874 0.478841 0.499269 0.519717 0.540186 0.547445 0.547449 0.567946 0.588463 0.609002 0.628208 0.648786 0.669386 0.690006 0.710648 0.73131 0.742602 0.763297 0.784013 0.80475 0.825509 0.84311 0.863908 0.884727 0.905567 0.926429 0.947313 0.968218 0.989144 1 0.579505 0.625299 0.671538 0.71823 0.765385 0.813011 0.861118 0.909716 0.958815 1 0.800576 0.800589 0.863231 0.927262 0.992742 1 0.940733 0.994797 1 
</DataArray>

</PointData>
<CellData Scalars=" CellData">
<DataArray type="Float32" Name="radius" NumberOfComponents="1" format="ascii" >
0.0293582 0.00980449 0.0314288 0.00878452 
</DataArray>
<DataArray type="Float32" Name="subType" NumberOfComponents="1" format="ascii" >
1 2 2 2 
</DataArray>
<DataArray type="Float32" Name="creationTime" NumberOfComponents="1" format="ascii" >
0 0.579505 0.800576 0.940733 
</DataArray>

</CellData>
<Points>
<DataArray type="Float32" Name="Coordinates" NumberOfComponents="3" format="ascii" >
0 0 -3 0.00506867 0.00684274 -3.04927 0.0136391 0.0145261 -3.09793 0.0235008 0.0215425 -3.14644 0.0339858 0.0292866 -3.19471 0.0442432 0.0325077 -3.24354 0.0542112 0.0365389 -3.29237 0.0573938 0.037692 -3.30609 0.0704156 0.0437391 -3.35399 0.0833052 0.0498388 -3.40191 0.0956209 0.0572997 -3.44979 0.106968 0.0645838 -3.49794 0.115659 0.073575 -3.54635 0.124275 0.0827265 -3.59474 0.135661 0.0908194 -3.64275 0.145876 0.100881 -3.69065 0.15556 0.111403 -3.73856 0.162154 0.122382 -3.7869 0.166821 0.130261 -3.82148 0.17039 0.135133 -3.87112 0.177853 0.142419 -3.92002 0.184824 0.149952 -3.96895 0.191879 0.156717 -4.01799 0.202564 0.16342 -4.06637 0.213474 0.168943 -4.11485 0.220362 0.173755 -4.15054 0.229778 0.179991 -4.19925 0.235946 0.187666 -4.24827 0.241742 0.19376 -4.29756 0.243653 0.195733 -4.31506 0.243654 0.195734 -4.31507 0.249807 0.200749 -4.36444 0.256438 0.208113 -4.41345 0.26214 0.217105 -4.4623 0.267154 0.224485 -4.50815 0.27116 0.235178 -4.55683 0.274065 0.246418 -4.60546 0.276408 0.255995 -4.65448 0.279166 0.265146 -4.70356 0.279474 0.273597 -4.75284 0.280257 0.278226 -4.77973 0.282274 0.286572 -4.82899 0.279255 0.294002 -4.87834 0.274879 0.301704 -4.92755 0.271293 0.308578 -4.97695 0.264949 0.312774 -5.01862 0.257756 0.317453 -5.06787 0.252767 0.321063 -5.11749 0.247947 0.324336 -5.16715 0.242379 0.328902 -5.21663 0.237733 0.33352 -5.2662 0.232921 0.335683 -5.31592 0.231546 0.339589 -5.36575 0.230838 0.341621 -5.39158 0.0573938 0.037692 -3.30609 0.0673375 -0.0104242 -3.31536 0.0762547 -0.0585015 -3.32581 0.0849701 -0.106365 -3.33735 0.0903401 -0.154977 -3.34774 0.0960346 -0.203497 -3.35838 0.10103 -0.251962 -3.36962 0.106059 -0.300922 -3.37843 0.108453 -0.350034 -3.3875 0.107392 -0.389841 -3.39934 0.166821 0.130261 -3.82148 0.16683 0.130257 -3.82148 0.2135 0.113635 -3.82824 0.260475 0.0991449 -3.83737 0.30776 0.0848253 -3.84506 0.313022 0.0834626 -3.84569 0.220362 0.173755 -4.15054 0.183652 0.145162 -4.16884 0.180161 0.142425 -4.17062 
</DataArray>
</Points>
<Lines>
<DataArray type="Int32" Name="connectivity" NumberOfComponents="1" format="ascii" >
0 1 2 3 4 5 6 7 8 9 10 11 12 13 14 15 16 17 18 19 20 21 22 23 24 25 26 27 28 29 30 31 32 33 34 35 36 37 38 39 40 41 42 43 44 45 46 47 48 49 50 51 52 53 54 55 56 57 58 59 60 61 62 63 64 65 66 67 68 69 70 71 72 
</DataArray>
<DataArray type="Int32" Name="offsets" NumberOfComponents="1" format="ascii" >
54 64 70 73 
</DataArray>

</Lines>
</Piece>
</PolyData>
</VTKFile>
