<?xml version="1.0"?><VTKFile type="PolyData" version="0.1" byte_order="LittleEndian">
<PolyData>
<Piece NumberOfLines="68" NumberOfPoints="567">
<PointData Scalars=" PointData">
<DataArray type="Float32" Name="time" NumberOfComponents="1" format="ascii" >
0 0.128339 0.256945 0.385821 0.514967 0.644385 0.774075 0.904038 1.03428 1.16479 1.29558 1.42665 1.558 1.68963 1.82154 1.95374 2.08622 2.21898 2.35204 2.48538 2.61901 2.75293 2.88714 3.02164 3.15644 3.29154 3.42693 3.56262 3.69861 3.8349 3.97149 4.10839 4.24559 4.3831 4.52091 4.65904 4.79747 4.93622 5.07528 5.21466 5.35435 5.49435 5.63468 5.77533 5.9163 6.05759 6.19921 6.34116 6.48343 6.62603 6.76896 6.91223 7.05583 7.19976 7.34404 7.48865 7.6336 7.77889 7.92453 8.07051 8.21684 8.36352 8.51054 8.65792 8.80565 8.95374 9.10219 9.25099 9.40016 9.54968 9.69957 9.84983 10 10.0004 10.1514 10.3028 10.4545 10.6067 10.7591 10.912 11.0653 11.2189 11.3729 11.5273 11.6821 11.8373 11.9928 12.1488 12.3051 12.4619 12.6191 12.7766 12.9346 13.093 13.2517 13.4109 13.5705 13.7305 13.891 14.0518 14.2131 14.3748 14.5369 14.6995 14.8624 15 6.61176 7.29811 8.02712 8.80445 9.63695 10.5331 11.5033 12.5611 13.7237 15 6.75466 7.44101 8.17002 8.94735 9.77985 10.676 11.6462 12.704 13.8666 15 6.89789 7.58424 8.31326 9.09058 9.92308 10.8192 11.7894 12.8472 14.0099 15 7.04145 7.72781 8.45682 9.23415 10.0666 10.9628 11.933 12.9908 14.1534 15 7.18536 7.87171 8.60072 9.37805 10.2106 11.1067 12.0769 13.1347 14.2973 15 7.32959 8.01595 8.74496 9.52229 10.3548 11.2509 12.2211 13.2789 14.4416 15 7.47417 8.16053 8.88954 9.66687 10.4994 11.3955 12.3657 13.4235 14.5862 15 7.61909 8.30544 9.03446 9.81178 10.6443 11.5404 12.5106 13.5684 14.7311 15 7.76435 8.4507 9.17971 9.95704 10.7895 11.6857 12.6559 13.7137 14.8763 15 7.90995 8.5963 9.32532 10.1026 10.9351 11.8313 12.8015 13.8593 15 8.0559 8.74225 9.47126 10.2486 11.0811 11.9772 12.9475 14.0052 15 8.20219 8.88855 9.61756 10.3949 11.2274 12.1235 13.0937 14.1515 15 8.34883 9.03519 9.7642 10.5415 11.374 12.2701 13.2404 14.2982 15 8.49582 9.18218 9.91119 10.6885 11.521 12.4171 13.3874 14.4452 15 8.64317 9.32952 10.0585 10.8359 11.6684 12.5645 13.5347 14.5925 15 8.79087 9.47722 10.2062 10.9836 11.8161 12.7122 13.6824 14.7402 15 8.93892 9.62527 10.3543 11.1316 11.9641 12.8602 13.8305 14.8882 15 9.08733 9.77368 10.5027 11.28 12.1125 13.0086 13.9789 15 9.2361 9.92245 10.6515 11.4288 12.2613 13.1574 14.1276 15 9.38522 10.0716 10.8006 11.5779 12.4104 13.3065 14.2768 15 9.53471 10.2211 10.9501 11.7274 12.5599 13.456 14.4263 15 9.68457 10.3709 11.0999 11.8773 12.7098 13.6059 14.5761 15 9.83478 10.5211 11.2502 12.0275 12.86 13.7561 14.7263 15 9.98537 10.6717 11.4007 12.1781 13.0106 13.9067 14.8769 15 10.1363 10.8227 11.5517 12.329 13.1615 14.0576 15 10.2877 10.974 11.703 12.4803 13.3128 14.209 15 10.4394 11.1257 11.8547 12.632 13.4645 14.3607 15 10.5914 11.2778 12.0068 12.7841 13.6166 14.5127 15 10.7439 11.4302 12.1592 12.9366 13.7691 14.6652 15 10.8967 11.5831 12.3121 13.0894 13.9219 14.818 15 11.0499 11.7363 12.4653 13.2426 14.0751 14.9712 15 11.2035 11.8899 12.6189 13.3962 14.2287 15 11.3575 12.0438 12.7728 13.5502 14.3827 15 11.5118 12.1982 12.9272 13.7045 14.537 15 11.6666 12.3529 13.082 13.8593 14.6918 15 11.8217 12.5081 13.2371 14.0144 14.8469 15 11.9773 12.6636 13.3926 14.1699 15 12.1332 12.8195 13.5485 14.3259 15 12.2895 12.9759 13.7049 14.4822 15 12.4462 13.1326 13.8616 14.6389 15 12.6033 13.2897 14.0187 14.796 15 12.7608 13.4472 14.1762 14.9535 15 12.9188 13.6051 14.3341 15 13.0771 13.7635 14.4925 15 13.2358 13.9222 14.6512 15 13.395 14.0813 14.8104 15 13.5545 14.2409 14.9699 15 13.7145 14.4009 15 13.8749 14.5613 15 14.0357 14.7221 15 14.1969 14.8833 15 14.3586 15 14.5207 15 14.6832 15 14.8461 15 7 7.12834 7.25695 7.38582 7.51497 7.64438 7.77407 7.90404 8.03428 8.16479 8.29558 8.42665 8.558 8.68963 8.82154 8.95374 9.08622 9.21898 9.35204 9.48538 9.61901 9.75293 9.88714 10.0216 10.1564 10.2915 10.4269 10.5626 10.6986 10.8349 10.9715 11.1084 11.2456 11.3831 11.5209 11.659 11.7975 11.9362 12.0753 12.2147 12.3543 12.4944 12.6347 12.7753 12.9163 13.0576 13.1992 13.3412 13.4834 13.626 13.769 13.9122 14.0558 14.1998 14.344 14.4886 14.6336 14.7789 14.9245 15 13.6118 14.2981 15 13.7547 14.441 15 13.8979 14.5842 15 14.0415 14.7278 15 14.1854 14.8717 15 14.3296 15 14.4742 15 14.6191 15 14.7643 15 14.9099 15 14 14.1283 14.2569 14.3858 14.515 14.6444 14.7741 14.904 15 
</DataArray>

</PointData>
<CellData Scalars=" CellData">
<DataArray type="Float32" Name="radius" NumberOfComponents="1" format="ascii" >
0.13 0.05 0.05 0.05 0.05 0.05 0.05 0.05 0.05 0.05 0.05 0.05 0.05 0.05 0.05 0.05 0.05 0.05 0.05 0.05 0.05 0.05 0.05 0.05 0.05 0.05 0.05 0.05 0.05 0.05 0.05 0.05 0.05 0.05 0.05 0.05 0.05 0.05 0.05 0.05 0.05 0.05 0.05 0.05 0.05 0.05 0.05 0.05 0.05 0.05 0.05 0.05 0.05 0.05 0.05 0.05 0.13 0.05 0.05 0.05 0.05 0.05 0.05 0.05 0.05 0.05 0.05 0.13 
</DataArray>
<DataArray type="Float32" Name="subType" NumberOfComponents="1" format="ascii" >
1 2 2 2 2 2 2 2 2 2 2 2 2 2 2 2 2 2 2 2 2 2 2 2 2 2 2 2 2 2 2 2 2 2 2 2 2 2 2 2 2 2 2 2 2 2 2 2 2 2 2 2 2 2 2 2 4 2 2 2 2 2 2 2 2 2 2 4 
</DataArray>
<DataArray type="Float32" Name="creationTime" NumberOfComponents="1" format="ascii" >
0 6.61176 6.75466 6.89789 7.04145 7.18536 7.32959 7.47417 7.61909 7.76435 7.90995 8.0559 8.20219 8.34883 8.49582 8.64317 8.79087 8.93892 9.08733 9.2361 9.38522 9.53471 9.68457 9.83478 9.98537 10.1363 10.2877 10.4394 10.5914 10.7439 10.8967 11.0499 11.2035 11.3575 11.5118 11.6666 11.8217 11.9773 12.1332 12.2895 12.4462 12.6033 12.7608 12.9188 13.0771 13.2358 13.395 13.5545 13.7145 13.8749 14.0357 14.1969 14.3586 14.5207 14.6832 14.8461 7 13.6118 13.7547 13.8979 14.0415 14.1854 14.3296 14.4742 14.6191 14.7643 14.9099 14 
</DataArray>

</CellData>
<Points>
<DataArray type="Float32" Name="Coordinates" NumberOfComponents="3" format="ascii" >
0 0 -1.2 -0.276193 -0.380535 -1.37003 -0.546967 -0.763556 -1.54317 -0.817616 -1.14888 -1.71132 -1.08496 -1.53515 -1.88255 -1.393 -1.89785 -2.03605 -1.68788 -2.28227 -2.15963 -1.97246 -2.66169 -2.31789 -2.26421 -3.0573 -2.40942 -2.57311 -3.43792 -2.50797 -2.86979 -3.82453 -2.6198 -3.19752 -4.1713 -2.76928 -3.50513 -4.54033 -2.90784 -3.8038 -4.92229 -3.02991 -4.10757 -5.29887 -3.15604 -4.41119 -5.67573 -3.28171 -4.69892 -6.05872 -3.42499 -4.96135 -6.45678 -3.57559 -5.18993 -6.85979 -3.76356 -5.40834 -7.26339 -3.96207 -5.63514 -7.65902 -4.16709 -5.83218 -8.06849 -4.3757 -6.01562 -8.49125 -4.56966 -6.18147 -8.9135 -4.7799 -6.36469 -9.32606 -4.99488 -6.55612 -9.75623 -5.16314 -6.7258 -10.1821 -5.36271 -6.89381 -10.6048 -5.57028 -7.07982 -11.0186 -5.78056 -7.21154 -11.4494 -5.99746 -7.36348 -11.8656 -6.22914 -7.5398 -12.2673 -6.469 -7.73811 -12.6355 -6.7431 -7.93519 -13.0044 -7.01705 -8.11903 -13.3629 -7.31321 -8.32084 -13.688 -7.63503 -8.49923 -13.9973 -7.98505 -8.68751 -14.302 -8.33388 -8.87963 -14.5735 -8.70723 -9.1068 -14.8405 -9.06376 -9.31867 -15.108 -9.42923 -9.53163 -15.3527 -9.80974 -9.72973 -15.61 -10.1899 -9.90385 -15.863 -10.5844 -10.0736 -16.1483 -10.9583 -10.246 -16.4494 -11.3184 -10.3577 -16.7204 -11.7235 -10.4093 -16.986 -12.144 -10.4876 -17.2566 -12.557 -10.5828 -17.4799 -12.9942 -10.6757 -17.7105 -13.4279 -10.7805 -17.9416 -13.8588 -10.8897 -18.1685 -14.2907 -10.9751 -18.3666 -14.7418 -11.0623 -18.5556 -15.1964 -11.1455 -18.7504 -15.6493 -11.2359 -18.9302 -16.1071 -11.3325 -19.1217 -16.5587 -11.468 -19.2765 -17.0144 -11.6028 -19.4258 -17.4722 -11.7953 -19.5774 -17.9081 -11.9477 -19.7533 -18.3506 -12.1252 -19.904 -18.793 -12.3039 -20.071 -19.2291 -12.4748 -20.2418 -19.6669 -12.623 -20.4164 -20.1113 -12.7751 -20.5899 -20.5549 -12.9222 -20.7512 -21.0047 -13.0703 -20.9112 -21.4547 -13.2021 -21.0507 -21.9164 -13.3027 -21.1974 -22.3837 -13.4285 -21.3072 -22.855 -13.5244 -21.4635 -23.3186 -13.5247 -21.464 -23.3199 -13.6174 -21.612 -23.7884 -13.7098 -21.7482 -24.2606 -13.8521 -21.878 -24.722 -13.9611 -22.0311 -25.1853 -14.0887 -22.1732 -25.6474 -14.2107 -22.3153 -26.111 -14.3313 -22.4337 -26.5816 -14.4713 -22.544 -27.0487 -14.5649 -22.6589 -27.5263 -14.6638 -22.7483 -28.0082 -14.7703 -22.8469 -28.4866 -14.8466 -22.9576 -28.9682 -14.9533 -23.056 -29.4467 -15.0624 -23.1286 -29.9292 -15.1828 -23.1859 -30.4111 -15.279 -23.1793 -30.9017 -15.3829 -23.1746 -31.3908 -15.4958 -23.1562 -31.8775 -15.6237 -23.1422 -32.3607 -15.7412 -23.1248 -32.8464 -15.8617 -23.0971 -33.3308 -15.9797 -23.0717 -33.816 -16.124 -23.0508 -34.2943 -16.2789 -23.0115 -34.7681 -16.4067 -22.9674 -35.2495 -16.5276 -22.9302 -35.7332 -16.6271 -22.8767 -36.2203 -16.6288 -22.8186 -36.7169 -16.6296 -22.7749 -37.215 -16.6161 -22.6706 -37.7038 -16.5606 -22.5722 -38.1909 -16.5029 -22.4972 -38.6011 -0.276193 -0.380535 -1.37003 0.123825 -0.666026 -1.46212 0.515219 -0.958512 -1.56825 0.907622 -1.24999 -1.67341 1.29141 -1.55286 -1.77818 1.69682 -1.8358 -1.85293 2.0857 -2.14485 -1.91008 2.45682 -2.47735 -1.9514 2.86402 -2.76335 -2.00033 3.26894 -3.04292 -2.05153 -0.546967 -0.763556 -1.54317 -0.125127 -1.01928 -1.62474 0.285813 -1.28182 -1.73521 0.695033 -1.54635 -1.84728 1.12362 -1.78197 -1.95118 1.55037 -2.03158 -2.02592 1.97995 -2.27263 -2.11164 2.39216 -2.55132 -2.16082 2.82191 -2.79355 -2.24229 3.21389 -2.98284 -2.31878 -0.817616 -1.14888 -1.71132 -0.490362 -1.31907 -2.04887 -0.135954 -1.50384 -2.3493 0.233643 -1.67239 -2.64082 0.617119 -1.85072 -2.90755 0.999231 -2.02829 -3.17673 1.39354 -2.19507 -3.43501 1.78214 -2.3674 -3.69824 2.19673 -2.5285 -3.92662 2.50254 -2.64708 -4.13471 -1.08496 -1.53515 -1.88255 -1.08193 -1.68922 -1.40689 -1.09138 -1.83258 -0.927973 -1.13251 -2.01137 -0.462846 -1.12026 -2.20481 -0.00194459 -1.11301 -2.38807 0.463203 -1.10474 -2.57215 0.92801 -1.11922 -2.73789 1.39952 -1.09773 -2.93915 1.85672 -1.07549 -3.08461 2.15669 -1.393 -1.89785 -2.03605 -1.83376 -1.71308 -1.88911 -2.27215 -1.52343 -1.74131 -2.69651 -1.30213 -1.59657 -3.13755 -1.08981 -1.4946 -3.54651 -0.831798 -1.36739 -3.96337 -0.584676 -1.24424 -4.38272 -0.339392 -1.12601 -4.80439 -0.1041 -0.996292 -5.02795 0.0296956 -0.896444 -1.68788 -2.28227 -2.15963 -2.03529 -1.96761 -2.3337 -2.38056 -1.6494 -2.50552 -2.72004 -1.3321 -2.69012 -3.02782 -0.992207 -2.88948 -3.35914 -0.668467 -3.07768 -3.68259 -0.344935 -3.27944 -4.01216 -0.0331032 -3.48955 -4.31369 0.280259 -3.7363 -4.44558 0.418745 -3.85117 -1.97246 -2.66169 -2.31789 -1.5624 -2.81394 -2.56011 -1.15129 -2.96637 -2.80044 -0.754533 -3.13756 -3.05198 -0.329694 -3.27573 -3.27653 0.0917461 -3.42818 -3.49823 0.51358 -3.54995 -3.73745 0.93198 -3.6691 -3.98391 1.35137 -3.78441 -4.23051 1.49132 -3.82246 -4.31199 -2.26421 -3.0573 -2.40942 -2.15987 -3.32806 -2.00223 -2.05592 -3.59821 -1.59453 -1.95113 -3.85995 -1.18161 -1.8179 -4.13541 -0.786165 -1.71615 -4.38163 -0.363051 -1.60212 -4.65397 0.0404678 -1.49676 -4.89057 0.468159 -1.3643 -5.10347 0.900742 -1.33642 -5.1486 0.995686 -2.57311 -3.43792 -2.50797 -2.28453 -3.7172 -2.2101 -2.00107 -4.00681 -1.91723 -1.70584 -4.30515 -1.6455 -1.42946 -4.63131 -1.38621 -1.13829 -4.95311 -1.13789 -0.847523 -5.27621 -0.890778 -0.573571 -5.61207 -0.64148 -0.300231 -5.94734 -0.390727 -0.272421 -5.98077 -0.365408 -2.86979 -3.82453 -2.6198 -2.71544 -4.10737 -2.23747 -2.5589 -4.38874 -1.85493 -2.31135 -4.67218 -1.52573 -2.08121 -4.95705 -1.18531 -1.82805 -5.24122 -0.861026 -1.5225 -5.52155 -0.581655 -1.19593 -5.77804 -0.303145 -0.870982 -6.01993 -0.0256697 -3.19752 -4.1713 -2.76928 -2.89304 -4.39916 -3.09388 -2.5954 -4.68902 -3.37208 -2.29492 -4.9742 -3.65206 -1.96164 -5.24607 -3.90703 -1.63018 -5.53138 -4.14937 -1.30133 -5.80734 -4.4057 -0.976104 -6.11319 -4.63083 -0.703874 -6.38354 -4.82682 -3.50513 -4.54033 -2.90784 -3.40821 -4.53368 -3.39831 -3.36461 -4.59727 -3.89233 -3.32978 -4.65757 -4.38745 -3.29608 -4.72452 -4.8818 -3.32198 -4.76501 -5.37949 -3.31347 -4.73769 -5.87867 -3.31543 -4.72209 -6.37842 -3.31429 -4.7109 -6.74799 -3.8038 -4.92229 -3.02991 -3.55902 -4.9897 -3.46065 -3.36036 -5.03701 -3.91704 -3.17174 -5.06352 -4.37934 -2.95066 -5.11346 -4.82502 -2.75024 -5.13801 -5.28243 -2.51553 -5.18824 -5.72106 -2.28975 -5.1885 -6.16718 -2.14123 -5.18435 -6.43666 -4.10757 -5.29887 -3.15604 -3.9423 -5.56728 -2.76791 -3.7887 -5.82457 -2.36765 -3.65233 -6.09537 -1.97007 -3.5174 -6.36659 -1.57228 -3.42017 -6.58374 -1.13252 -3.34655 -6.80662 -0.691035 -3.2299 -6.95533 -0.228133 -3.17356 -7.04219 -0.00631092 -4.41119 -5.67573 -3.28171 -4.19172 -6.02705 -3.0017 -3.96659 -6.38217 -2.73114 -3.73046 -6.72874 -2.45887 -3.47343 -7.05971 -2.18611 -3.23358 -7.40349 -1.91355 -2.95785 -7.75649 -1.69137 -2.6772 -8.09317 -1.45078 -2.57921 -8.21892 -1.36527 -4.69892 -6.05872 -3.42499 -4.57708 -5.93589 -3.89411 -4.44825 -5.81543 -4.36196 -4.30396 -5.67236 -4.81882 -4.16003 -5.53823 -5.27848 -4.0209 -5.40606 -5.74019 -3.90539 -5.28955 -6.2125 -3.74201 -5.16692 -6.66887 -3.70383 -5.13847 -6.77472 -4.96135 -6.45678 -3.57559 -4.93976 -6.2817 -4.04344 -4.93523 -6.09796 -4.50843 -4.95082 -5.92627 -4.97777 -4.95968 -5.75636 -5.44793 -4.98586 -5.58408 -5.91658 -5.01032 -5.41575 -6.38676 -5.04597 -5.25334 -6.8583 -5.04779 -5.23725 -6.90586 -5.18993 -6.85979 -3.76356 -4.76759 -7.03355 -3.96712 -4.37275 -7.22724 -4.20499 -3.97784 -7.42067 -4.44296 -3.59304 -7.63101 -4.68315 -3.1861 -7.83009 -4.89472 -2.78213 -7.98769 -5.14367 -2.40787 -8.15847 -5.39754 -5.40834 -7.26339 -3.96207 -5.39939 -7.63159 -3.62391 -5.42986 -8.00654 -3.29454 -5.48474 -8.38729 -2.97513 -5.54475 -8.77362 -2.66345 -5.58877 -9.17186 -2.36434 -5.60639 -9.56419 -2.05487 -5.61428 -9.88644 -1.79258 -5.63514 -7.65902 -4.16709 -5.67718 -8.06114 -3.87291 -5.70276 -8.46464 -3.57875 -5.72789 -8.87405 -3.29283 -5.75716 -9.28272 -3.00624 -5.81175 -9.68777 -2.71823 -5.85358 -10.114 -2.46022 -5.88043 -10.4056 -2.27456 -5.83218 -8.06849 -4.3757 -5.78921 -7.96636 -4.86326 -5.77701 -7.8638 -5.35248 -5.76488 -7.76474 -5.84242 -5.78964 -7.68664 -6.33566 -5.80772 -7.60745 -6.82902 -5.82311 -7.52702 -7.32227 -5.82423 -7.45136 -7.58851 -6.01562 -8.49125 -4.56966 -6.37327 -8.45365 -4.22228 -6.73834 -8.41129 -3.88327 -7.11507 -8.37711 -3.5563 -7.49643 -8.37155 -3.23298 -7.85627 -8.38734 -2.88619 -8.20665 -8.38958 -2.5295 -8.35039 -8.3919 -2.38225 -6.18147 -8.9135 -4.7799 -6.60467 -8.77287 -5.00601 -7.02815 -8.625 -5.22692 -7.474 -8.50275 -5.41737 -7.91602 -8.36966 -5.60948 -8.34828 -8.25159 -5.83132 -8.78115 -8.13616 -6.05335 -8.89607 -8.1027 -6.11294 -6.36469 -9.32606 -4.99488 -6.81625 -9.1167 -5.04244 -7.27106 -8.91494 -5.0919 -7.72499 -8.7095 -5.13358 -8.18546 -8.51478 -5.1265 -8.655 -8.34326 -5.11568 -9.12198 -8.16578 -5.09493 -9.17874 -8.14496 -5.09219 -6.55612 -9.75623 -5.16314 -6.75631 -9.67357 -5.6138 -6.95371 -9.59032 -6.06557 -7.13703 -9.52248 -6.52578 -7.31904 -9.4546 -6.9865 -7.49684 -9.38709 -7.44892 -7.6849 -9.31917 -7.8921 -6.7258 -10.1821 -5.36271 -7.21326 -10.0711 -5.3698 -7.69953 -9.95639 -5.38947 -8.18537 -9.84006 -5.41016 -8.65914 -9.69975 -5.48669 -9.13935 -9.56225 -5.50888 -9.53398 -9.44961 -5.52566 -6.89381 -10.6048 -5.57028 -6.93907 -10.8702 -5.14891 -6.99579 -11.1355 -4.72894 -7.0771 -11.4021 -4.31381 -7.17712 -11.6373 -3.88408 -7.26772 -11.8887 -3.46149 -7.32992 -12.0589 -3.18081 -7.07982 -11.0186 -5.78056 -6.84978 -10.9759 -6.22244 -6.62126 -10.9246 -6.6642 -6.37793 -10.8957 -7.10003 -6.11301 -10.8787 -7.52375 -5.83712 -10.8791 -7.94074 -5.67825 -10.8709 -8.14166 -7.21154 -11.4494 -5.99746 -6.98677 -11.4394 -6.44398 -6.73347 -11.4297 -6.87496 -6.50369 -11.425 -7.31901 -6.27188 -11.4221 -7.76201 -6.03535 -11.4241 -8.20253 -5.96313 -11.4306 -8.36425 -7.36348 -11.8656 -6.22914 -7.65819 -11.5696 -6.50398 -7.92822 -11.2661 -6.79545 -8.17628 -10.9238 -7.06241 -8.39546 -10.5785 -7.35004 -8.61578 -10.2281 -7.63056 -8.65965 -10.1604 -7.68438 -7.5398 -12.2673 -6.469 -7.11242 -12.4833 -6.61293 -6.68878 -12.7055 -6.7583 -6.27044 -12.884 -6.96598 -5.85533 -13.0888 -7.15504 -5.44569 -13.3011 -7.3478 -5.43303 -13.3076 -7.35373 -7.73811 -12.6355 -6.7431 -7.50681 -12.6451 -7.18628 -7.27464 -12.6545 -7.62901 -7.03348 -12.6409 -8.06679 -6.77794 -12.6303 -8.49643 -6.54971 -12.6569 -8.86299 -7.93519 -13.0044 -7.01705 -7.82688 -13.3139 -6.63952 -7.70484 -13.6204 -6.26383 -7.5589 -13.9424 -5.91025 -7.42412 -14.2771 -5.56417 -7.34277 -14.5003 -5.30915 -8.11903 -13.3629 -7.31321 -8.57846 -13.173 -7.25989 -9.0372 -12.9814 -7.2064 -9.4962 -12.7896 -7.15594 -9.94288 -12.5952 -7.04332 -10.1753 -12.4885 -6.98159 -8.32084 -13.688 -7.63503 -8.23065 -13.3104 -7.95014 -8.1519 -12.9455 -8.2828 -8.07063 -12.5815 -8.61579 -7.98727 -12.2229 -8.95411 -7.9615 -12.0965 -9.07428 -8.49923 -13.9973 -7.98505 -8.93473 -13.7594 -7.9237 -9.36879 -13.512 -7.90484 -9.80204 -13.2628 -7.89044 -10.2267 -12.999 -7.90051 -10.3019 -12.9531 -7.90236 -8.68751 -14.302 -8.33388 -9.13685 -14.0838 -8.31266 -9.59154 -13.8787 -8.27803 -10.0465 -13.6727 -8.25522 -10.5002 -13.4665 -8.23944 -8.87963 -14.5735 -8.70723 -9.29322 -14.3281 -8.84408 -9.68326 -14.0326 -8.94657 -10.0665 -13.7192 -9.01675 -10.3867 -13.4726 -9.06949 -9.1068 -14.8405 -9.06376 -9.19124 -15.117 -8.65583 -9.27132 -15.3969 -8.2493 -9.35895 -15.7152 -7.87379 -9.41959 -15.9292 -7.65054 -9.31867 -15.108 -9.42923 -8.94871 -15.2616 -9.72845 -8.59978 -15.4146 -10.0522 -8.27395 -15.6037 -10.381 -8.12876 -15.6757 -10.5316 -9.53163 -15.3527 -9.80974 -9.2139 -15.7386 -9.81916 -8.9102 -16.1356 -9.83145 -8.59311 -16.5219 -9.84804 -8.51277 -16.6187 -9.84936 -9.72973 -15.61 -10.1899 -10.2008 -15.4691 -10.0992 -10.6735 -15.3321 -10.0107 -11.1333 -15.1477 -9.94308 -11.1597 -15.1369 -9.9389 -9.90385 -15.863 -10.5844 -10.3619 -15.7495 -10.4192 -10.7973 -15.5639 -10.2581 -11.1736 -15.4064 -10.121 -10.0736 -16.1483 -10.9583 -9.61217 -16.0993 -11.1447 -9.15567 -16.0351 -11.3383 -8.86448 -15.9928 -11.4881 -10.246 -16.4494 -11.3184 -10.4835 -16.1182 -11.6081 -10.6894 -15.7735 -11.9061 -10.784 -15.6158 -12.0417 -10.3577 -16.7204 -11.7235 -10.7108 -16.945 -11.45 -11.0506 -17.1928 -11.1795 -11.1378 -17.2542 -11.1143 -10.4093 -16.986 -12.144 -9.93507 -16.876 -12.258 -9.45528 -16.781 -12.3619 -9.43606 -16.7772 -12.3658 -10.4876 -17.2566 -12.557 -10.2197 -17.6451 -12.392 -10.0067 -17.9745 -12.2622 -10.5828 -17.4799 -12.9942 -10.2157 -17.2676 -13.2589 -9.99359 -17.1376 -13.422 -10.6757 -17.7105 -13.4279 -10.566 -18.1624 -13.2442 -10.519 -18.3343 -13.1668 -10.7805 -17.9416 -13.8588 -11.0249 -17.5193 -13.9677 -11.0618 -17.449 -13.9889 -10.8897 -18.1685 -14.2907 -10.6508 -18.5661 -14.2272 -10.9751 -18.3666 -14.7418 -10.639 -18.4528 -14.8021 -11.0623 -18.5556 -15.1964 -11.0057 -18.7803 -15.1605 -11.1455 -18.7504 -15.6493 -11.2479 -18.6994 -15.6561 0 0 -1.2 -0.445368 0.137553 -1.38091 -0.889315 0.283527 -1.55868 -1.35005 0.336064 -1.74567 -1.80964 0.376578 -1.93837 -2.26868 0.417016 -2.13239 -2.72875 0.454547 -2.32456 -3.20305 0.469864 -2.48205 -3.68262 0.466973 -2.6235 -4.13983 0.375347 -2.80396 -4.60751 0.289869 -2.95876 -5.07815 0.280157 -3.12729 -5.54922 0.269717 -3.29459 -6.01854 0.26418 -3.46695 -6.481 0.265069 -3.65704 -6.93652 0.266424 -3.86317 -7.39676 0.31232 -4.05312 -7.85709 0.353607 -4.24388 -8.2882 0.405796 -4.49171 -8.72388 0.460551 -4.73084 -9.15691 0.532175 -4.97034 -9.58118 0.616217 -5.22118 -10.0015 0.689362 -5.48194 -10.4229 0.734272 -5.74719 -10.8424 0.776017 -6.01606 -11.243 0.824003 -6.31138 -11.6382 0.866292 -6.6148 -12.0379 0.916909 -6.91093 -12.4372 0.984119 -7.20423 -12.8398 1.06291 -7.49001 -13.2122 1.1272 -7.81741 -13.5834 1.18078 -8.14806 -13.9468 1.24327 -8.48579 -14.281 1.3649 -8.83728 -14.6155 1.50764 -9.18035 -14.9428 1.64104 -9.53403 -15.2635 1.75365 -9.90076 -15.5813 1.86627 -10.2699 -15.8997 1.9786 -10.6387 -16.2187 2.08939 -11.0074 -16.5623 2.19642 -11.3546 -16.9438 2.32692 -11.6502 -17.3307 2.46 -11.9376 -17.7157 2.5667 -12.2383 -18.0782 2.68516 -12.5616 -18.444 2.77917 -12.8893 -18.8092 2.8734 -13.2176 -19.1725 2.98106 -13.5438 -19.5429 3.0887 -13.862 -19.9152 3.15077 -14.1898 -20.2473 3.26688 -14.5452 -20.5806 3.38722 -14.8979 -20.8912 3.50379 -15.272 -21.2304 3.64592 -15.6107 -21.5834 3.78132 -15.9379 -21.9348 3.91606 -16.2671 -22.2785 4.04801 -16.6054 -22.6276 4.15691 -16.9464 -22.9606 4.24457 -17.3089 -23.1285 4.28923 -17.5005 -0.445368 0.137553 -1.38091 -0.423999 -0.157891 -1.78372 -0.467015 -0.450172 -2.1645 -0.889315 0.283527 -1.55868 -1.09222 0.417317 -1.12172 -1.25707 0.538738 -0.79432 -1.35005 0.336064 -1.74567 -1.28008 0.1815 -2.216 -1.23878 0.0914659 -2.48744 -1.80964 0.376578 -1.93837 -1.74568 0.871435 -1.97042 -1.70942 1.05765 -1.98574 -2.26868 0.417016 -2.13239 -2.45868 0.162146 -1.74646 -2.49033 0.114047 -1.67696 -2.72875 0.454547 -2.32456 -2.73145 0.897321 -2.11773 -3.20305 0.469864 -2.48205 -3.31131 0.795195 -2.65862 -3.68262 0.466973 -2.6235 -3.69463 0.347846 -2.87782 -4.13983 0.375347 -2.80396 -4.12704 0.462092 -2.95538 -4.60751 0.289869 -2.95876 -4.57337 0.236404 -2.98118 0 0 -1.2 0.402609 -0.20425 -1.41491 0.759518 -0.461398 -1.65259 1.10834 -0.705336 -1.91493 1.46836 -0.912406 -2.19332 1.83458 -1.02534 -2.51446 2.18887 -1.10049 -2.85918 2.54228 -1.17423 -3.2051 2.7964 -1.22244 -3.46759 
</DataArray>
</Points>
<Lines>
<DataArray type="Int32" Name="connectivity" NumberOfComponents="1" format="ascii" >
0 1 2 3 4 5 6 7 8 9 10 11 12 13 14 15 16 17 18 19 20 21 22 23 24 25 26 27 28 29 30 31 32 33 34 35 36 37 38 39 40 41 42 43 44 45 46 47 48 49 50 51 52 53 54 55 56 57 58 59 60 61 62 63 64 65 66 67 68 69 70 71 72 73 74 75 76 77 78 79 80 81 82 83 84 85 86 87 88 89 90 91 92 93 94 95 96 97 98 99 100 101 102 103 104 105 106 107 108 109 110 111 112 113 114 115 116 117 118 119 120 121 122 123 124 125 126 127 128 129 130 131 132 133 134 135 136 137 138 139 140 141 142 143 144 145 146 147 148 149 150 151 152 153 154 155 156 157 158 159 160 161 162 163 164 165 166 167 168 169 170 171 172 173 174 175 176 177 178 179 180 181 182 183 184 185 186 187 188 189 190 191 192 193 194 195 196 197 198 199 200 201 202 203 204 205 206 207 208 209 210 211 212 213 214 215 216 217 218 219 220 221 222 223 224 225 226 227 228 229 230 231 232 233 234 235 236 237 238 239 240 241 242 243 244 245 246 247 248 249 250 251 252 253 254 255 256 257 258 259 260 261 262 263 264 265 266 267 268 269 270 271 272 273 274 275 276 277 278 279 280 281 282 283 284 285 286 287 288 289 290 291 292 293 294 295 296 297 298 299 300 301 302 303 304 305 306 307 308 309 310 311 312 313 314 315 316 317 318 319 320 321 322 323 324 325 326 327 328 329 330 331 332 333 334 335 336 337 338 339 340 341 342 343 344 345 346 347 348 349 350 351 352 353 354 355 356 357 358 359 360 361 362 363 364 365 366 367 368 369 370 371 372 373 374 375 376 377 378 379 380 381 382 383 384 385 386 387 388 389 390 391 392 393 394 395 396 397 398 399 400 401 402 403 404 405 406 407 408 409 410 411 412 413 414 415 416 417 418 419 420 421 422 423 424 425 426 427 428 429 430 431 432 433 434 435 436 437 438 439 440 441 442 443 444 445 446 447 448 449 450 451 452 453 454 455 456 457 458 459 460 461 462 463 464 465 466 467 468 469 470 471 472 473 474 475 476 477 478 479 480 481 482 483 484 485 486 487 488 489 490 491 492 493 494 495 496 497 498 499 500 501 502 503 504 505 506 507 508 509 510 511 512 513 514 515 516 517 518 519 520 521 522 523 524 525 526 527 528 529 530 531 532 533 534 535 536 537 538 539 540 541 542 543 544 545 546 547 548 549 550 551 552 553 554 555 556 557 558 559 560 561 562 563 564 565 566 
</DataArray>
<DataArray type="Int32" Name="offsets" NumberOfComponents="1" format="ascii" >
106 116 126 136 146 156 166 176 186 196 205 214 223 232 241 250 259 268 276 284 292 300 308 316 324 331 338 345 352 359 366 373 379 385 391 397 403 408 413 418 423 428 433 437 441 445 449 453 456 459 462 465 467 469 471 473 533 536 539 542 545 548 550 552 554 556 558 567 
</DataArray>

</Lines>
</Piece>
</PolyData>
</VTKFile>
