<?xml version="1.0"?><VTKFile type="PolyData" version="0.1" byte_order="LittleEndian">
<PolyData>
<Piece NumberOfLines="204" NumberOfPoints="1071">
<PointData Scalars=" PointData">
<DataArray type="Float32" Name="time" NumberOfComponents="1" format="ascii" >
0 0.486749 0.976143 1.46821 1.96298 2.46048 2.96074 3.26224 3.76698 4.27457 4.78504 5.29842 5.81473 6 4.52945 5.82348 6 5.04136 6 5.5562 6 0 0.48661 0.975581 1.46694 1.9607 2.45689 2.95554 3.25592 3.75855 4.26369 4.77139 5.28165 5.79451 6 4.51722 5.81126 6 5.02619 6 5.53775 6 0 0.486801 0.976351 1.46868 1.96382 2.46181 2.96267 3.26458 3.77012 4.27862 4.79012 5.30465 5.82226 6 4.53399 5.82803 6 5.047 6 5.56307 6 0 0.486616 0.975604 1.46699 1.96079 2.45704 2.95575 3.25618 3.75889 4.26414 4.77194 5.28233 5.79533 6 4.51772 5.81176 6 5.02681 6 5.5385 6 0 0.486639 0.975698 1.4672 1.96117 2.45764 2.95662 3.25723 3.7603 4.26595 4.77422 5.28513 5.7987 6 4.51976 5.8138 6 5.02934 6 5.54158 6 0 0.486764 0.976201 1.46834 1.96321 2.46085 2.96128 3.26289 3.76785 4.2757 4.78645 5.30015 5.81682 6 4.53071 5.82475 6 5.04293 6 5.55811 6 0 0.486561 0.975384 1.46649 1.9599 2.45564 2.95372 3.25371 3.7556 4.2599 4.76662 5.2758 5.78746 6 4.51296 5.80699 6 5.02091 6 5.53132 6 0 0.486651 0.975746 1.46731 1.96137 2.45795 2.95707 3.25777 3.76102 4.26689 4.77539 5.28657 5.80044 6 4.52081 5.81485 6 5.03065 6 5.54317 6 0 0.48647 0.975018 1.46566 1.95842 2.45331 2.95035 3.24962 3.75014 4.25286 4.7578 5.26498 5.77442 6 4.50505 5.79909 6 5.01111 6 5.51942 6 0 0.486604 0.975558 1.46688 1.96061 2.45675 2.95533 3.25566 3.75821 4.26326 4.77084 5.28097 5.79369 6 4.51673 5.81077 6 5.02558 6 5.53701 6 0 0.486432 0.974865 1.46532 1.9578 2.45234 2.94894 3.2479 3.74785 4.24992 4.75411 5.26046 5.76897 6 4.50175 5.79578 6 5.00701 6 5.51444 6 0 0.486571 0.975426 1.46659 1.96007 2.45591 2.95411 3.25419 3.75623 4.26071 4.76765 5.27706 5.78898 6 4.51387 5.80791 6 5.02204 6 5.5327 6 0 0.486735 0.976086 1.46808 1.96275 2.46012 2.96022 3.2616 3.76613 4.27348 4.78366 5.29672 5.81269 6 4.52821 5.82225 6 5.03983 6 5.55434 6 0 0.486722 0.976031 1.46796 1.96252 2.45976 2.9597 3.26098 3.7653 4.2724 4.78231 5.29507 5.81069 6 4.52701 5.82104 6 5.03833 6 5.55252 6 0 0.486561 0.975384 1.46649 1.9599 2.45564 2.95372 3.25371 3.7556 4.2599 4.76662 5.2758 5.78746 6 4.51296 5.80699 6 5.02091 6 5.53132 6 0 0.486502 0.975146 1.46595 1.95894 2.45412 2.95153 3.25104 3.75204 4.25531 4.76087 5.26875 5.77896 6 4.50781 5.80184 6 5.01452 6 5.52356 6 0 0.486809 0.976382 1.46875 1.96395 2.46201 2.96296 3.26493 3.77059 4.27922 4.79088 5.30559 5.82339 6 4.53467 5.82871 6 5.04785 6 5.5641 6 0 0.486771 0.97623 1.46841 1.96333 2.46103 2.96155 3.26322 3.7683 4.27627 4.78717 5.30103 5.81789 6 4.53135 5.82539 6 5.04373 6 5.55908 6 0 0.48684 0.97651 1.46904 1.96447 2.46282 2.96415 3.26638 3.77251 4.28171 4.794 5.30943 5.82803 6 4.53747 5.83151 6 5.05132 6 5.56833 6 0 0.486728 0.976058 1.46802 1.96263 2.45994 2.95996 3.26129 3.76571 4.27294 4.78298 5.29589 5.81169 6 4.52761 5.78043 6 5.03908 6 5.55342 6 0 0.486793 0.97632 1.46861 1.9637 2.46161 2.96238 3.26424 3.76965 4.27802 4.78937 5.30373 5.82115 6 4.53332 5.82736 6 5.04617 6 5.56206 6 0 0.486593 0.975513 1.46678 1.96042 2.45646 2.95492 3.25516 3.75754 4.26239 4.76975 5.27964 5.79209 6 4.51576 5.80979 6 5.02438 6 5.53555 6 0 0.486551 0.975342 1.4664 1.95973 2.45537 2.95334 3.25325 3.75498 4.2591 4.76562 5.27457 5.78598 6 4.51206 5.80609 6 5.01979 6 5.52997 6 0 0.486742 0.976114 1.46814 1.96286 2.4603 2.96048 3.26192 3.76656 4.27402 4.78435 5.29756 5.81371 6 4.52883 5.82286 6 5.04059 6 5.55527 6 0 0.486551 0.975342 1.4664 1.95973 2.45537 2.95334 3.25325 3.75498 4.2591 4.76562 5.27457 5.78598 6 4.51206 5.80609 6 5.01979 6 5.52997 6 0 0.486541 0.975302 1.4663 1.95957 2.45511 2.95296 3.25279 3.75437 4.25831 4.76464 5.27337 5.78452 6 4.51117 5.80521 6 5.0187 6 5.52864 6 0 0.486817 0.976413 1.46882 1.96408 2.46221 2.96325 3.26529 3.77106 4.27983 4.79164 5.30653 5.82453 6 4.53536 5.82939 6 5.0487 6 5.56514 6 0 0.486742 0.976114 1.46814 1.96286 2.4603 2.96048 3.26192 3.76656 4.27402 4.78435 5.29756 5.81371 6 4.52883 5.82286 6 5.04059 6 5.55527 6 0 0.486566 0.975405 1.46654 1.95999 2.45577 2.95392 3.25395 3.75592 4.2603 4.76713 5.27643 5.78822 6 4.51341 5.80745 6 5.02147 6 5.53201 6 0 0.486566 0.975405 1.46654 1.95999 2.45577 2.95392 3.25395 3.75592 4.2603 4.76713 5.27643 5.78822 6 4.51341 5.76623 6 5.02147 6 5.53201 6 0 0.486588 0.975491 1.46673 1.96034 2.45632 2.95471 3.25491 3.75721 4.26197 4.76922 5.27899 5.7913 6 4.51528 5.80932 6 5.02379 6 5.53482 6 0 0.486657 0.975771 1.46737 1.96147 2.4581 2.9573 3.25805 3.76139 4.26736 4.77599 5.2873 5.80133 6 4.52134 5.81538 6 5.03131 6 5.54397 6 0 0.486778 0.97626 1.46847 1.96345 2.46122 2.96182 3.26355 3.76874 4.27685 4.78789 5.30192 5.81896 6 4.532 5.82604 6 5.04453 6 5.56006 6 0 0.48684 0.97651 1.46904 1.96447 2.46282 2.96415 3.26638 3.77251 4.28171 4.794 5.30943 5.82803 6 4.53747 5.83151 6 5.05132 6 5.56833 6 0 0.486479 0.975054 1.46574 1.95856 2.45354 2.95068 3.25001 3.75067 4.25354 4.75866 5.26603 5.77569 6 4.50582 5.79986 6 5.01206 6 5.52057 6 0 0.486771 0.97623 1.46841 1.96333 2.46103 2.96155 3.26322 3.7683 4.27627 4.78717 5.30103 5.81789 6 4.53135 5.82539 6 5.04373 6 5.55908 6 0 0.486682 0.975871 1.46759 1.96188 2.45875 2.95823 3.25918 3.76291 4.26932 4.77844 5.29031 5.80495 6 4.52354 5.81757 6 5.03403 6 5.54728 6 0 0.486488 0.97509 1.46583 1.95871 2.45377 2.95101 3.25042 3.75121 4.25424 4.75953 5.26711 5.77698 6 4.5066 5.80064 6 5.01303 6 5.52175 6 0 0.486786 0.97629 1.46854 1.96357 2.46142 2.9621 3.26389 3.7692 4.27743 4.78863 5.30282 5.82005 6 4.53265 5.82669 6 5.04535 6 5.56105 6 0 0.486577 0.975448 1.46663 1.96016 2.45604 2.95431 3.25443 3.75655 4.26113 4.76817 5.2777 5.78974 6 4.51434 5.80837 6 5.02262 6 5.5334 6 0 0.486786 0.97629 1.46854 1.96357 2.46142 2.9621 3.26389 3.7692 4.27743 4.78863 5.30282 5.82005 6 4.53265 5.82669 6 5.04535 6 5.56105 6 0 0.486702 0.97595 1.46777 1.96219 2.45925 2.95895 3.26007 3.76408 4.27083 4.78035 5.29265 5.80778 6 4.52524 5.81928 6 5.03615 6 5.54986 6 0 0.486663 0.975795 1.46742 1.96157 2.45826 2.95753 3.25833 3.76177 4.26784 4.77659 5.28804 5.80222 6 4.52188 5.81592 6 5.03198 6 5.54479 6 0 0.486651 0.975746 1.46731 1.96137 2.45795 2.95707 3.25777 3.76102 4.26689 4.77539 5.28657 5.80044 6 4.52081 5.81485 6 5.03065 6 5.54317 6 0 0.486801 0.976351 1.46868 1.96382 2.46181 2.96267 3.26458 3.77012 4.27862 4.79012 5.30465 5.82226 6 4.53399 5.82803 6 5.047 6 5.56307 6 0 0.486695 0.975923 1.46771 1.96209 2.45908 2.95871 3.25977 3.76369 4.27032 4.7797 5.29186 5.80682 6 4.52467 5.77749 6 5.03543 6 5.54899 6 0 0.486639 0.975698 1.4672 1.96117 2.45764 2.95662 3.25723 3.7603 4.26595 4.77422 5.28513 5.7987 6 4.51976 5.8138 6 5.02934 6 5.54158 6 0 0.486728 0.976058 1.46802 1.96263 2.45994 2.95996 3.26129 3.76571 4.27294 4.78298 5.29589 5.81169 6 4.52761 5.82164 6 5.03908 6 5.55342 6 0 0.486556 0.975363 1.46644 1.95982 2.45551 2.95353 3.25348 3.75529 4.2595 4.76612 5.27519 5.78672 6 4.5125 5.80654 6 5.02035 6 5.53064 6 0 0.486566 0.975405 1.46654 1.95999 2.45577 2.95392 3.25395 3.75592 4.2603 4.76713 5.27643 5.78822 6 4.51341 5.80745 6 5.02147 6 5.53201 6 0 0.486936 0.976894 1.46991 1.96603 2.46529 2.96772 3.27072 3.77833 4.28921 4.80343 5.32102 5.84203 6 4.5459 5.83994 6 5.0618 6 5.58109 6 
</DataArray>

</PointData>
<CellData Scalars=" CellData">
<DataArray type="Float32" Name="radius" NumberOfComponents="1" format="ascii" >
0.15 0.05 0.05 0.05 0.15 0.05 0.05 0.05 0.15 0.05 0.05 0.05 0.15 0.05 0.05 0.05 0.15 0.05 0.05 0.05 0.15 0.05 0.05 0.05 0.15 0.05 0.05 0.05 0.15 0.05 0.05 0.05 0.15 0.05 0.05 0.05 0.15 0.05 0.05 0.05 0.15 0.05 0.05 0.05 0.15 0.05 0.05 0.05 0.15 0.05 0.05 0.05 0.15 0.05 0.05 0.05 0.15 0.05 0.05 0.05 0.15 0.05 0.05 0.05 0.15 0.05 0.05 0.05 0.15 0.05 0.05 0.05 0.15 0.05 0.05 0.05 0.15 0.05 0.05 0.05 0.15 0.05 0.05 0.05 0.15 0.05 0.05 0.05 0.15 0.05 0.05 0.05 0.15 0.05 0.05 0.05 0.15 0.05 0.05 0.05 0.15 0.05 0.05 0.05 0.15 0.05 0.05 0.05 0.15 0.05 0.05 0.05 0.15 0.05 0.05 0.05 0.15 0.05 0.05 0.05 0.15 0.05 0.05 0.05 0.15 0.05 0.05 0.05 0.15 0.05 0.05 0.05 0.15 0.05 0.05 0.05 0.15 0.05 0.05 0.05 0.15 0.05 0.05 0.05 0.15 0.05 0.05 0.05 0.15 0.05 0.05 0.05 0.15 0.05 0.05 0.05 0.15 0.05 0.05 0.05 0.15 0.05 0.05 0.05 0.15 0.05 0.05 0.05 0.15 0.05 0.05 0.05 0.15 0.05 0.05 0.05 0.15 0.05 0.05 0.05 0.15 0.05 0.05 0.05 0.15 0.05 0.05 0.05 0.15 0.05 0.05 0.05 0.15 0.05 0.05 0.05 0.15 0.05 0.05 0.05 0.15 0.05 0.05 0.05 
</DataArray>
<DataArray type="Float32" Name="subType" NumberOfComponents="1" format="ascii" >
1 2 2 2 4 2 2 2 4 2 2 2 4 2 2 2 4 2 2 2 4 2 2 2 4 2 2 2 4 2 2 2 4 2 2 2 4 2 2 2 4 2 2 2 4 2 2 2 4 2 2 2 4 2 2 2 4 2 2 2 4 2 2 2 4 2 2 2 4 2 2 2 4 2 2 2 4 2 2 2 4 2 2 2 4 2 2 2 4 2 2 2 4 2 2 2 4 2 2 2 4 2 2 2 4 2 2 2 4 2 2 2 4 2 2 2 4 2 2 2 4 2 2 2 4 2 2 2 4 2 2 2 4 2 2 2 4 2 2 2 4 2 2 2 4 2 2 2 4 2 2 2 4 2 2 2 4 2 2 2 4 2 2 2 4 2 2 2 4 2 2 2 4 2 2 2 4 2 2 2 4 2 2 2 4 2 2 2 4 2 2 2 4 2 2 2 4 2 2 2 4 2 2 2 
</DataArray>
<DataArray type="Float32" Name="creationTime" NumberOfComponents="1" format="ascii" >
0 4.52945 5.04136 5.5562 0 4.51722 5.02619 5.53775 0 4.53399 5.047 5.56307 0 4.51772 5.02681 5.5385 0 4.51976 5.02934 5.54158 0 4.53071 5.04293 5.55811 0 4.51296 5.02091 5.53132 0 4.52081 5.03065 5.54317 0 4.50505 5.01111 5.51942 0 4.51673 5.02558 5.53701 0 4.50175 5.00701 5.51444 0 4.51387 5.02204 5.5327 0 4.52821 5.03983 5.55434 0 4.52701 5.03833 5.55252 0 4.51296 5.02091 5.53132 0 4.50781 5.01452 5.52356 0 4.53467 5.04785 5.5641 0 4.53135 5.04373 5.55908 0 4.53747 5.05132 5.56833 0 4.52761 5.03908 5.55342 0 4.53332 5.04617 5.56206 0 4.51576 5.02438 5.53555 0 4.51206 5.01979 5.52997 0 4.52883 5.04059 5.55527 0 4.51206 5.01979 5.52997 0 4.51117 5.0187 5.52864 0 4.53536 5.0487 5.56514 0 4.52883 5.04059 5.55527 0 4.51341 5.02147 5.53201 0 4.51341 5.02147 5.53201 0 4.51528 5.02379 5.53482 0 4.52134 5.03131 5.54397 0 4.532 5.04453 5.56006 0 4.53747 5.05132 5.56833 0 4.50582 5.01206 5.52057 0 4.53135 5.04373 5.55908 0 4.52354 5.03403 5.54728 0 4.5066 5.01303 5.52175 0 4.53265 5.04535 5.56105 0 4.51434 5.02262 5.5334 0 4.53265 5.04535 5.56105 0 4.52524 5.03615 5.54986 0 4.52188 5.03198 5.54479 0 4.52081 5.03065 5.54317 0 4.53399 5.047 5.56307 0 4.52467 5.03543 5.54899 0 4.51976 5.02934 5.54158 0 4.52761 5.03908 5.55342 0 4.5125 5.02035 5.53064 0 4.51341 5.02147 5.53201 0 4.5459 5.0618 5.58109 
</DataArray>

</CellData>
<Points>
<DataArray type="Float32" Name="Coordinates" NumberOfComponents="3" format="ascii" >
0 0 -3 -0.0564827 -0.00423184 -3.99839 -0.0516257 -0.0110185 -4.99836 -0.207591 -0.158537 -5.97504 -0.357816 -0.305918 -6.95265 -0.517726 -0.508966 -7.91867 -0.554164 -0.708501 -8.89789 -0.569414 -0.82648 -9.48597 -0.49799 -1.06122 -10.4554 -0.480365 -1.20497 -11.4449 -0.430767 -1.33575 -12.435 -0.401018 -1.46993 -13.4255 -0.371682 -1.60827 -14.4155 -0.378274 -1.59218 -14.7725 -0.569414 -0.82648 -9.48597 -0.269638 0.113131 -9.65109 -0.237441 0.214243 -9.66899 -0.49799 -1.06122 -10.4554 -0.377172 -0.325624 -10.6794 -0.480365 -1.20497 -11.4449 -0.0999803 -1.28766 -11.4326 0 0 -3 0.0221135 0.858038 -3.51311 0.183033 1.81866 -3.73964 0.307934 2.72661 -4.13967 0.367376 3.6126 -4.59954 0.245272 4.59226 -4.75881 0.145175 5.58196 -4.86112 0.3355 6.14672 -4.93059 0.854972 6.97294 -5.14856 1.35884 7.72781 -5.56843 1.92495 8.49725 -5.86419 2.59318 9.20706 -6.08699 3.30822 9.89954 -6.1828 3.60698 10.1636 -6.20385 0.3355 6.14672 -4.93059 -0.129552 6.1761 -5.81539 -0.182115 6.17819 -5.91748 0.854972 6.97294 -5.14856 0.9976 7.06999 -4.37874 1.35884 7.72781 -5.56843 1.71328 7.53742 -5.52652 0 0 -3 0.746359 0.432357 -3.50598 1.46055 0.942223 -3.98553 2.24765 1.26921 -4.50855 3.02723 1.64498 -5.00961 3.8446 1.72242 -5.58049 4.66151 1.80833 -6.15083 5.19085 1.91307 -6.41318 6.03295 2.11326 -6.91397 6.90495 1.67812 -7.13817 7.67463 1.14873 -7.49502 8.32632 0.460047 -7.81285 9.06185 0.0072108 -8.31677 9.28769 -0.0689093 -8.56207 5.19085 1.91307 -6.41318 5.15973 2.87028 -6.12545 5.15797 2.97142 -6.09763 6.03295 2.11326 -6.91397 6.30571 1.37387 -6.85422 6.90495 1.67812 -7.13817 7.04032 2.01868 -7.26416 0 0 -3 0.603339 0.218807 -3.76688 1.12012 0.526288 -4.56587 1.69639 0.911019 -5.28691 2.12852 1.24173 -6.12589 2.97644 1.62495 -6.49221 3.82412 2.0086 -6.85861 4.33188 2.25535 -7.06183 5.14413 2.7129 -7.42361 5.96601 3.12342 -7.81857 6.87825 3.23679 -8.21222 7.72902 3.51173 -8.6601 8.55468 3.84713 -9.11374 8.80899 4.05384 -9.33877 4.33188 2.25535 -7.06183 4.29305 3.07272 -6.48704 4.28726 3.16606 -6.42088 5.14413 2.7129 -7.42361 5.58788 2.29557 -6.92299 5.96601 3.12342 -7.81857 6.16369 3.06946 -7.46576 0 0 -3 0.565384 0.654112 -3.50247 1.17649 1.2485 -4.02521 1.86561 1.78906 -4.50782 2.52735 2.46108 -4.8402 2.82261 2.84348 -5.71576 3.27622 2.84473 -6.60695 3.56374 2.80613 -7.13216 3.57437 2.98084 -8.11672 3.41837 3.31605 -9.04586 3.37444 3.7419 -9.94959 3.20925 3.92283 -10.9191 3.10887 4.14593 -11.8887 2.91127 4.19158 -12.2225 3.56374 2.80613 -7.13216 3.53493 3.80502 -7.1694 3.53256 3.91814 -7.17618 3.57437 2.98084 -8.11672 3.73347 2.23011 -8.29 3.41837 3.31605 -9.04586 3.16909 3.00687 -9.10406 0 0 -3 -0.877608 0.156108 -3.45325 -1.75724 0.321846 -3.89909 -2.47502 0.553407 -4.55573 -3.33038 0.651596 -5.06436 -4.14089 0.641351 -5.65001 -4.90059 0.651121 -6.30021 -5.14877 0.636321 -6.84627 -5.70011 0.607274 -7.68004 -6.32446 0.647232 -8.46017 -6.63446 0.595311 -9.40948 -7.00061 0.699486 -10.3342 -7.36905 0.801246 -11.2583 -7.50446 0.859646 -11.5791 -5.14877 0.636321 -6.84627 -4.46083 1.28308 -7.17558 -4.39078 1.35273 -7.21634 -5.70011 0.607274 -7.68004 -5.92777 -0.129211 -7.5804 -6.32446 0.647232 -8.46017 -6.4359 0.278965 -8.41088 0 0 -3 -0.506034 0.752881 -3.42083 -1.11419 1.45488 -3.79144 -1.46309 2.27162 -4.251 -1.90051 3.07784 -4.64935 -2.67295 3.66247 -4.89744 -3.36956 4.37403 -4.98916 -3.64907 4.90441 -5.01309 -4.48075 5.32169 -4.64678 -5.30689 5.77943 -4.3182 -6.13265 6.29537 -4.09031 -6.83326 6.97792 -3.88231 -7.48615 7.67304 -3.5814 -7.6737 8.03448 -3.50693 -3.64907 4.90441 -5.01309 -3.14091 5.21322 -4.20909 -3.08209 5.24963 -4.11428 -4.48075 5.32169 -4.64678 -4.85177 4.7502 -5.08347 -5.30689 5.77943 -4.3182 -5.51569 5.54116 -4.58463 0 0 -3 0.656921 -0.751212 -3.06431 1.17507 -1.60526 -3.0182 1.81718 -2.34966 -2.83501 2.45402 -3.07499 -2.57362 2.98293 -3.90051 -2.37671 3.5173 -4.51693 -1.79837 3.62414 -4.95355 -1.40094 3.92472 -5.50124 -0.620117 4.01285 -6.12086 0.159822 4.17493 -6.71154 0.950275 4.42774 -7.08821 1.84146 4.67176 -7.45394 2.73962 4.84177 -7.58239 3.06258 3.62414 -4.95355 -1.40094 3.16681 -5.56334 -2.04825 3.11654 -5.63202 -2.12216 3.92472 -5.50124 -0.620117 3.16812 -5.76281 -0.567984 4.01285 -6.12086 0.159822 4.11576 -6.42414 -0.0799916 0 0 -3 -0.544518 0.680194 -3.49075 -0.942679 1.33737 -4.13074 -1.13855 1.94425 -4.90102 -1.38811 2.32946 -5.78947 -1.6116 2.67942 -6.69918 -1.73221 2.86716 -7.67397 -1.86485 3.0189 -8.2391 -2.04464 3.2029 -9.20545 -2.3653 3.23843 -10.152 -2.65182 3.26755 -11.1096 -2.87327 3.16668 -12.0795 -2.99542 2.86864 -13.0263 -3.0405 2.73724 -13.4452 -1.86485 3.0189 -8.2391 -1.60384 3.9659 -8.0519 -1.57081 4.08082 -8.02753 -2.04464 3.2029 -9.20545 -1.70542 3.92405 -9.14375 -2.3653 3.23843 -10.152 -2.51681 3.62912 -10.0886 0 0 -3 0.690082 -0.472904 -3.54786 1.1839 -0.920079 -4.29363 1.76173 -1.4491 -4.91512 2.29483 -1.97707 -5.57622 2.64591 -2.43193 -6.39466 2.90932 -3.03731 -7.14575 2.96979 -3.41649 -7.60679 3.02758 -4.05894 -8.37094 2.90823 -4.60598 -9.19949 2.68398 -5.36724 -9.80793 2.26375 -6.2401 -10.056 1.83289 -7.1307 -10.2015 1.69579 -7.50743 -10.2081 2.96979 -3.41649 -7.60679 2.0281 -3.28374 -7.91599 1.91825 -3.26532 -7.94515 3.02758 -4.05894 -8.37094 2.47196 -3.6811 -8.78515 2.90823 -4.60598 -9.19949 3.06563 -4.90382 -8.97446 0 0 -3 0.672695 0.210714 -3.70928 1.29744 0.342468 -4.47892 1.88906 0.39697 -5.28328 2.38854 0.770236 -6.06508 3.14193 1.1096 -6.62831 3.80473 1.47333 -7.28283 4.14472 1.76427 -7.68253 4.779 2.3235 -8.21635 5.01773 3.14305 -8.73724 5.26511 3.97164 -9.23949 5.78887 4.65559 -9.74732 6.2483 5.52934 -9.90692 6.44695 5.93146 -9.96993 4.14472 1.76427 -7.68253 4.90706 1.78097 -7.03557 5.00164 1.78628 -6.95561 4.779 2.3235 -8.21635 5.05726 1.7042 -8.64355 5.01773 3.14305 -8.73724 5.3997 3.15139 -8.54452 0 0 -3 -0.0041962 -0.802209 -3.59703 0.386148 -1.39691 -4.29985 0.583467 -1.9579 -5.10381 0.783449 -2.51308 -5.91114 0.981164 -3.06607 -6.72054 1.09807 -3.60475 -7.5549 1.25798 -3.86298 -8.07234 1.65906 -3.83652 -8.988 1.80304 -3.86112 -9.97727 1.95234 -3.32035 -10.8051 2.21327 -2.89947 -11.6739 2.51287 -2.55607 -12.564 2.69297 -2.47881 -12.925 1.25798 -3.86298 -8.07234 2.14894 -3.41858 -7.97908 2.25237 -3.3656 -7.96704 1.65906 -3.83652 -8.988 2.19365 -4.38985 -8.80105 1.80304 -3.86112 -9.97727 2.15032 -4.07052 -9.92715 0 0 -3 0.57643 0.573993 -3.5816 1.18821 1.15919 -4.11383 1.74352 1.77209 -4.67595 2.28669 2.61076 -4.71607 2.96583 3.34093 -4.79107 3.57581 4.08983 -5.05004 3.98237 4.50404 -5.20215 4.47974 4.90498 -5.97148 5.02101 5.30775 -6.70959 5.4862 5.77067 -7.46411 5.9649 6.23414 -8.20979 6.48758 6.7294 -8.90371 6.62511 6.93362 -9.16858 3.98237 4.50404 -5.20215 4.72405 3.84096 -5.10104 4.80475 3.76909 -5.09313 4.47974 4.90498 -5.97148 3.87134 4.76482 -6.43809 5.02101 5.30775 -6.70959 4.86767 5.66358 -6.6572 0 0 -3 -0.747462 -0.274794 -3.60481 -1.55579 -0.453651 -4.1657 -2.20911 -0.577906 -4.91252 -2.9279 -0.703809 -5.59626 -3.81595 -0.861653 -6.02805 -4.6157 -1.14321 -6.55828 -5.03595 -1.45835 -6.84823 -5.92654 -1.67618 -7.24747 -6.81965 -1.90104 -7.63707 -7.58318 -1.72073 -8.25717 -8.44158 -1.20997 -8.30492 -8.94947 -0.442638 -8.6964 -9.17368 -0.184672 -8.82659 -5.03595 -1.45835 -6.84823 -5.2786 -2.06886 -6.0943 -5.30531 -2.13548 -6.01219 -5.92654 -1.67618 -7.24747 -6.00419 -2.2417 -6.7152 -6.81965 -1.90104 -7.63707 -6.92797 -2.06691 -7.29826 0 0 -3 0.0423252 -0.861157 -3.50657 0.204126 -1.65043 -4.09891 0.420086 -2.42185 -4.69748 0.667227 -3.11939 -5.37006 0.76348 -3.77318 -6.12058 0.805051 -4.41037 -6.89017 0.896284 -4.83114 -7.30806 1.05273 -5.52848 -8.00751 1.24467 -6.31824 -8.59013 1.45269 -7.20674 -8.99913 1.48468 -8.15545 -9.31366 1.72076 -9.07769 -9.61984 1.80192 -9.45725 -9.76375 0.896284 -4.83114 -7.30806 0.172324 -4.3274 -7.77936 0.0873398 -4.26828 -7.83466 1.05273 -5.52848 -8.00751 0.692516 -5.07054 -8.54482 1.24467 -6.31824 -8.59013 1.38072 -6.07189 -8.88792 0 0 -3 -0.32864 -0.77348 -3.54196 -0.562103 -1.42147 -4.26695 -0.751947 -2.04888 -5.02215 -1.23711 -2.57136 -5.7233 -1.93746 -3.10986 -6.19186 -2.77609 -3.5869 -6.45477 -3.27602 -3.90213 -6.55825 -4.11125 -4.42217 -6.73699 -4.51662 -5.07042 -7.38153 -5.03548 -5.76142 -7.88483 -5.50111 -6.50029 -8.37191 -6.10206 -7.22611 -8.70665 -6.38757 -7.52987 -8.81918 -3.27602 -3.90213 -6.55825 -2.73556 -4.69422 -6.84197 -2.67036 -4.78796 -6.88015 -4.11125 -4.42217 -6.73699 -3.8465 -4.58993 -7.46975 -4.51662 -5.07042 -7.38153 -4.70796 -5.28839 -7.08328 0 0 -3 -0.842021 -0.0600902 -3.53609 -1.62451 -0.373129 -4.07434 -2.44157 -0.625187 -4.59287 -3.26621 -0.439319 -5.12712 -4.08107 -0.287408 -5.68652 -4.93316 -0.206892 -6.20369 -5.47566 -0.207691 -6.46 -6.37032 -0.234139 -6.90595 -7.16057 0.0741837 -7.43553 -7.71158 0.615315 -8.07079 -7.94085 1.54128 -8.37082 -8.28396 2.39684 -8.75851 -8.38267 2.69812 -8.88055 -5.47566 -0.207691 -6.46 -5.20315 0.543042 -7.06178 -5.17215 0.619975 -7.12537 -6.37032 -0.234139 -6.90595 -6.76029 -0.0880672 -6.25369 -7.16057 0.0741837 -7.43553 -7.39722 -0.0683354 -7.16498 0 0 -3 -0.440582 -0.713919 -3.54425 -0.905858 -1.41167 -4.08891 -1.24536 -1.79642 -4.94723 -1.45731 -2.29308 -5.7889 -1.82648 -2.95519 -6.44106 -2.40639 -3.47267 -7.07028 -2.78434 -3.7913 -7.41033 -3.51465 -4.28193 -7.88565 -4.23662 -4.77694 -8.3691 -5.05466 -5.18764 -8.77175 -5.80146 -5.80616 -9.01613 -6.5659 -6.22327 -9.50771 -6.83461 -6.37716 -9.67291 -2.78434 -3.7913 -7.41033 -3.432 -3.9463 -6.66433 -3.50064 -3.96281 -6.58461 -3.51465 -4.28193 -7.88565 -3.69107 -3.65449 -8.30814 -4.23662 -4.77694 -8.3691 -4.32919 -4.97415 -8.04912 0 0 -3 -0.799611 0.377643 -3.46691 -1.60008 0.729678 -3.95201 -2.48748 1.05814 -4.2755 -3.39058 1.40783 -4.52472 -4.31012 1.71034 -4.77558 -5.24592 2.04416 -4.88896 -5.73759 2.38664 -4.92 -6.60264 2.88618 -4.96636 -7.50602 3.3042 -5.06205 -8.48151 3.51333 -5.1306 -9.46712 3.65313 -5.22561 -10.4525 3.79232 -5.32377 -10.7817 3.81771 -5.32876 -5.73759 2.38664 -4.92 -6.13364 1.81411 -5.63789 -6.17393 1.754 -5.71098 -6.60264 2.88618 -4.96636 -6.82396 2.68512 -4.25524 -7.50602 3.3042 -5.06205 -7.53115 3.34952 -4.68608 0 0 -3 0.481169 0.736014 -3.47619 0.946348 1.48445 -3.9489 1.36961 2.26307 -4.41215 1.35209 3.11372 -4.9376 1.16306 4.03951 -5.26497 0.71329 4.90932 -5.06214 0.577996 5.49305 -5.03136 0.370165 6.46722 -5.11969 0.105181 7.31118 -5.58609 0.0295246 8.18804 -6.06085 0.102949 9.01263 -6.62178 0.051691 9.70585 -7.34068 0.0354983 9.94847 -7.61114 0.577996 5.49305 -5.03136 0.0272699 5.41156 -5.86206 -0.0514142 5.39739 -5.98082 0.370165 6.46722 -5.11969 0.638435 6.59344 -4.39828 0.105181 7.31118 -5.58609 0.46537 7.45485 -5.53061 0 0 -3 0.894943 0.174219 -3.41076 1.50338 0.857873 -3.81378 2.1503 1.38946 -4.36051 2.79434 1.90407 -4.92653 3.60394 2.4723 -5.0737 4.43074 3.02629 -4.97624 4.93243 3.35068 -4.92077 5.77758 3.87338 -4.80891 6.63811 4.36853 -4.68926 7.49152 4.85879 -4.51226 8.39742 5.27564 -4.587 9.28949 5.67343 -4.80143 9.61365 5.75928 -4.87941 4.93243 3.35068 -4.92077 5.03973 3.05384 -3.97189 5.05337 3.02165 -3.87255 5.77758 3.87338 -4.80891 5.37017 4.28555 -4.29434 6.63811 4.36853 -4.68926 6.50917 4.67398 -4.88432 0 0 -3 0.0935687 -0.728528 -3.6786 0.138182 -1.49199 -4.3229 0.151748 -2.26563 -4.95638 0.133246 -3.06112 -5.56207 -0.114043 -3.78308 -6.20831 -0.239091 -4.60985 -6.75677 -0.186837 -4.95422 -7.24532 -0.235781 -5.17711 -8.21894 -0.29745 -5.5411 -9.1483 -0.360852 -5.90685 -10.0768 -0.395813 -6.1799 -11.0382 -0.468764 -6.5047 -11.9812 -0.506239 -6.63307 -12.3627 -0.186837 -4.95422 -7.24532 0.743401 -4.63152 -7.42004 0.852168 -4.59736 -7.43986 -0.235781 -5.17711 -8.21894 -0.507044 -5.91609 -8.04228 -0.29745 -5.5411 -9.1483 0.0414017 -5.34216 -9.25169 0 0 -3 -0.0972972 0.887235 -3.45094 -0.153456 1.73863 -3.97246 -0.0924772 2.73095 -4.08009 -0.0471303 3.72377 -3.96949 -0.33464 4.67952 -4.03179 -0.210221 5.66269 -3.89795 0.0779408 6.18828 -3.87116 0.539864 7.05802 -3.69747 0.885642 7.97118 -3.48166 1.39438 8.75438 -3.12419 2.13979 9.35164 -2.82812 2.89505 9.91189 -2.48797 3.20556 10.1491 -2.34224 0.0779408 6.18828 -3.87116 -0.0264131 6.29895 -2.8828 -0.0359535 6.31237 -2.76606 0.539864 7.05802 -3.69747 -0.124701 7.41645 -3.94093 0.885642 7.97118 -3.48166 0.533673 8.06443 -3.29138 0 0 -3 -0.807084 0.325469 -3.49263 -1.65045 0.607172 -3.95021 -2.40289 1.02891 -4.45614 -3.26945 1.19823 -4.92562 -4.22853 1.17227 -5.20755 -5.19171 1.28206 -5.45299 -5.76003 1.3835 -5.61647 -6.68061 1.51701 -5.98348 -7.60182 1.81365 -6.23525 -8.34297 2.29424 -6.70399 -8.99904 2.13282 -7.44122 -9.75068 1.94152 -8.07244 -10.0595 1.79906 -8.18918 -5.76003 1.3835 -5.61647 -5.86978 0.412423 -5.82853 -5.88303 0.307988 -5.85257 -6.68061 1.51701 -5.98348 -6.78051 0.761561 -6.14477 -7.60182 1.81365 -6.23525 -7.45163 2.10187 -6.45123 0 0 -3 -0.76231 -0.445842 -3.46916 -1.65034 -0.889853 -3.58856 -2.55235 -1.31261 -3.67603 -3.40481 -1.82756 -3.76629 -4.03175 -2.34781 -3.18639 -4.6218 -2.84243 -2.54828 -4.82584 -3.34872 -2.2992 -5.27278 -4.05233 -1.74677 -5.89086 -4.75188 -1.38814 -6.60703 -5.42799 -1.21502 -7.11836 -6.21153 -0.862031 -7.43163 -7.15383 -0.743983 -7.60382 -7.53284 -0.718614 -4.82584 -3.34872 -2.2992 -4.16364 -3.32203 -1.55035 -4.08547 -3.3185 -1.46216 -5.27278 -4.05233 -1.74677 -4.73038 -3.98816 -1.17139 -5.89086 -4.75188 -1.38814 -6.08556 -4.46198 -1.17172 0 0 -3 -0.413714 -0.671431 -3.61483 -0.872885 -1.45329 -4.03657 -1.12707 -2.40486 -4.2095 -1.41624 -3.35201 -4.34835 -1.66295 -4.31986 -4.39736 -1.91283 -5.28728 -4.43818 -1.88726 -5.88673 -4.43825 -2.20149 -6.83011 -4.54447 -2.47066 -7.78891 -4.63538 -2.75486 -8.74219 -4.73782 -3.18477 -9.58179 -5.06983 -3.37115 -10.5184 -5.36661 -3.45286 -10.9162 -5.47427 -1.88726 -5.88673 -4.43825 -1.94635 -5.90824 -5.43627 -1.95266 -5.91 -5.55451 -2.20149 -6.83011 -4.54447 -1.51121 -7.0256 -4.88489 -2.47066 -7.78891 -4.63538 -2.84686 -7.67226 -4.75594 0 0 -3 0.438269 0.487259 -3.75531 0.872568 1.10547 -4.41045 1.37712 1.81343 -4.90463 1.91601 2.52381 -5.35736 2.31399 3.20506 -5.97178 2.71812 3.89083 -6.57708 3.09157 4.28713 -6.82904 3.79073 4.58046 -7.48107 4.40869 4.76869 -8.24441 5.00713 4.95193 -9.02434 5.56321 5.20646 -9.81554 6.09036 5.45455 -10.6283 6.29128 5.59949 -10.8573 3.09157 4.28713 -6.82904 2.44595 4.99782 -6.5496 2.37865 5.07161 -6.52022 3.79073 4.58046 -7.48107 4.27629 4.04388 -7.20859 4.40869 4.76869 -8.24441 4.5486 4.40955 -8.26126 0 0 -3 -0.310218 0.812966 -3.4928 -0.529739 1.48559 -4.19947 -0.844721 1.70297 -5.12334 -1.07504 1.69498 -6.09642 -1.24164 1.56067 -7.07326 -1.48536 1.37976 -8.02608 -1.72373 1.27575 -8.56678 -2.2753 1.24428 -9.40032 -2.95832 0.999415 -10.0885 -3.32306 0.572758 -10.9161 -3.66549 0.0341389 -11.6859 -4.01648 -0.467236 -12.4767 -4.16224 -0.678248 -12.7287 -1.72373 1.27575 -8.56678 -2.15819 2.16407 -8.41801 -2.20699 2.25876 -8.40031 -2.2753 1.24428 -9.40032 -2.89188 1.57083 -9.05405 -2.95832 0.999415 -10.0885 -3.26872 1.137 -9.88848 0 0 -3 0.694715 -0.160952 -3.70105 1.58021 -0.318252 -4.13826 2.45443 -0.500022 -4.58849 3.29545 -0.710025 -5.08706 4.15608 -0.617051 -5.58774 5.01546 -0.671874 -6.09613 5.44509 -0.802441 -6.49408 6.18806 -1.04517 -7.11784 6.82115 -1.64583 -7.60612 7.5845 -2.23444 -7.87226 8.27641 -2.94818 -7.98108 9.10119 -3.3279 -8.40006 9.42248 -3.50974 -8.58382 5.44509 -0.802441 -6.49408 4.89004 -1.42839 -7.04191 4.82636 -1.4975 -7.11177 6.18806 -1.04517 -7.11784 6.72194 -0.767304 -6.60276 6.82115 -1.64583 -7.60612 6.73627 -1.44563 -7.95769 0 0 -3 0.775237 -0.118201 -3.62051 1.51989 -0.264247 -4.27179 2.11738 -0.632761 -4.98398 2.70755 -0.978599 -5.71342 3.19734 -0.966662 -6.58518 3.55459 -1.16759 -7.49732 3.77367 -1.34205 -8.02795 4.03134 -1.98021 -8.75346 4.28163 -2.58252 -9.51147 4.50796 -3.15916 -10.2965 4.7136 -3.81751 -11.0206 5.04722 -4.30163 -11.8295 5.21216 -4.43394 -12.1835 3.77367 -1.34205 -8.02795 3.25636 -2.19414 -7.94835 3.17769 -2.32379 -7.93622 4.03134 -1.98021 -8.75346 4.58536 -1.48894 -9.035 4.28163 -2.58252 -9.51147 4.1862 -2.31069 -9.80204 0 0 -3 0.673815 0.499523 -3.54447 1.08026 1.17407 -4.16074 1.57506 1.74767 -4.81355 1.8678 2.24781 -5.62851 1.86843 3.17656 -5.99921 1.61077 3.97655 -6.54109 1.44011 4.37732 -6.95371 1.22922 5.02945 -7.6819 0.744986 5.38058 -8.48328 0.113188 5.83552 -9.11087 -0.539417 6.32203 -9.69174 -1.16999 6.41945 -10.4617 -1.37424 6.4692 -10.809 1.44011 4.37732 -6.95371 0.760219 4.73642 -6.31434 0.682342 4.77772 -6.23894 1.22922 5.02945 -7.6819 0.529844 4.68504 -7.81326 0.744986 5.38058 -8.48328 1.10413 5.47024 -8.65222 0 0 -3 0.899015 -0.0255736 -3.43717 1.85377 0.0676167 -3.71959 2.7238 0.306939 -4.15061 3.55111 0.0962341 -4.67133 4.4033 -0.292721 -5.02131 5.27216 -0.738092 -5.23749 5.7738 -1.04613 -5.35353 6.69301 -1.43989 -5.35006 7.53391 -1.93323 -5.57253 8.46202 -2.00502 -5.93787 9.37928 -2.04612 -6.33401 10.3118 -1.96622 -6.6862 10.6692 -1.99292 -6.82701 5.7738 -1.04613 -5.35353 6.17563 -0.729723 -4.49422 6.21788 -0.693799 -4.39644 6.69301 -1.43989 -5.35006 7.04205 -0.792516 -5.07462 7.53391 -1.93323 -5.57253 7.51968 -1.79469 -5.94692 0 0 -3 0.46153 0.0748968 -3.88396 0.971092 0.0671109 -4.74436 1.21607 0.158241 -5.70959 1.48406 0.298315 -6.66278 1.77331 0.43035 -7.61088 1.51287 0.895541 -8.45691 1.39648 1.18528 -8.96927 1.16036 1.52844 -9.87838 0.962114 1.44112 -10.8546 0.709446 1.33231 -11.8161 0.502749 1.55465 -12.7689 0.483321 1.78494 -13.7418 0.492394 1.83183 -14.0873 1.39648 1.18528 -8.96927 2.2445 1.7076 -8.87963 2.33583 1.76047 -8.86855 1.16036 1.52844 -9.87838 1.8149 1.94552 -9.88598 0.962114 1.44112 -10.8546 1.25282 1.67915 -10.9445 0 0 -3 0.853265 0.349048 -3.38743 1.71765 0.638592 -3.79854 2.36806 0.879525 -4.51889 3.01816 1.11107 -5.24261 3.63858 1.30855 -6.0016 4.26972 1.52604 -6.74615 4.64405 1.699 -7.18201 5.27468 1.91105 -7.92855 6.00611 1.94063 -8.60983 6.70945 2.26717 -9.24125 7.4155 2.592 -9.87052 8.14331 2.89934 -10.4836 8.38765 2.99118 -10.6859 4.64405 1.699 -7.18201 5.14937 2.28572 -6.54923 5.20231 2.34655 -6.48538 5.27468 1.91105 -7.92855 4.71855 2.27301 -8.322 6.00611 1.94063 -8.60983 6.25269 1.9425 -8.3166 0 0 -3 0.753464 -0.341002 -3.56215 1.45862 -0.698481 -4.17449 2.2163 -0.751531 -4.82496 2.92637 -0.712235 -5.52799 3.84455 -0.538939 -5.88425 4.73359 -0.297279 -6.2731 5.26739 -0.0555714 -6.40207 6.1687 0.342217 -6.57356 6.99594 0.775434 -6.93133 7.8357 1.09084 -7.37328 8.70304 1.38265 -7.77648 9.4241 1.74424 -8.36752 9.66463 1.90023 -8.69959 5.26739 -0.0555714 -6.40207 5.23203 -0.453089 -7.31898 5.23027 -0.50239 -7.43009 6.1687 0.342217 -6.57356 6.0265 0.921665 -6.04261 6.99594 0.775434 -6.93133 7.0086 0.456445 -7.20185 0 0 -3 0.761986 0.26176 -3.59233 1.48464 0.47609 -4.24947 2.23055 0.603709 -4.90318 3.03541 0.727448 -5.4836 3.64108 0.817068 -6.27425 3.96844 1.05537 -7.18861 4.2328 1.07636 -7.72682 4.65451 1.23351 -8.61983 4.99501 1.41436 -9.54252 5.17138 1.74927 -10.4681 5.35193 2.17581 -11.3544 5.52963 2.56336 -12.2589 5.6175 2.75958 -12.5363 4.2328 1.07636 -7.72682 3.3845 1.2691 -8.22001 3.29473 1.29028 -8.27323 4.65451 1.23351 -8.61983 5.3152 0.871103 -8.37366 4.99501 1.41436 -9.54252 4.98876 1.79525 -9.45503 0 0 -3 -0.801622 -0.113989 -3.58686 -1.46566 -0.481808 -4.23783 -2.11443 -0.650927 -4.97979 -2.60587 -0.656557 -5.85068 -3.15571 -0.588624 -6.68318 -3.70948 -0.45923 -7.50574 -4.03511 -0.407639 -8.00704 -4.72964 -0.371588 -8.7256 -5.47782 -0.226834 -9.37312 -6.14583 -0.630072 -9.99854 -6.16114 -0.864719 -10.9705 -6.20283 -1.10049 -11.9414 -6.24874 -1.18051 -12.3076 -4.03511 -0.407639 -8.00704 -4.37808 0.501441 -7.77051 -4.41728 0.602355 -7.7455 -4.72964 -0.371588 -8.7256 -4.70325 0.427519 -8.70586 -5.47782 -0.226