<?xml version="1.0"?><VTKFile type="PolyData" version="0.1" byte_order="LittleEndian">
<PolyData>
<Piece NumberOfLines="144" NumberOfPoints="983">
<PointData Scalars=" PointData">
<DataArray type="Float32" Name="time" NumberOfComponents="1" format="ascii" >
0 0.242236 0.48535 0.72935 0.925803 1.17142 1.41793 1.66536 1.9137 2.16297 2.41317 2.66431 2.91639 3.08802 3.3417 3.59635 3.85197 4.10857 4.36616 4.62474 4.83459 5.09499 5.3564 5.61884 5.88232 6.14683 6.41239 6.67901 6.86902 7.13747 7.40699 7.67761 7.94932 8.22214 8.49607 8.77113 9.04733 9.12125 9.3989 9.6777 9.95766 10.2388 10.5211 10.8046 11.0894 11.1729 11.4592 11.7467 12.0355 12.3255 12.6168 12.9094 13.2032 13.3445 13.6402 13.9373 14.2357 14.5354 14.8365 15.1389 15.4427 15.7479 15.8693 16.1764 16.485 16.795 17.1064 17.4192 17.7336 18.0494 18.3667 18.3742 18.6931 19.0135 19.3354 19.6589 19.9839 20.3106 20.6388 20.9189 21 2.44254 2.98509 3.53132 4.08127 4.635 5.19257 5.57602 6.14016 6.70827 6.73394 7.30627 7.79553 8.37548 8.94828 9.53662 10.1293 10.3006 10.8989 11.5017 11.5968 12.2049 12.8176 12.9943 13.6131 13.9492 14.5753 15.2064 15.3101 15.9469 16.5889 16.6288 17.2762 17.9289 18.1317 18.7914 19.4534 20.124 20.8002 21 5.57602 10 6.73394 6.932 7.41208 7.93603 8.51266 9.15377 9.87562 10.6686 11.6277 12.7799 14.223 15 17.2758 21 6.932 7.65155 10 10.6686 11.2861 12.9876 15 15 15.7168 18.893 21 7.79553 7.99919 8.45759 8.93182 9.42301 9.93243 10.4615 11.0117 11.012 11.5852 12.1834 12.8088 13.4641 14.1523 14.8579 15.6216 16.4303 17.2896 18.2063 19.1885 20.2465 20.2601 21 7.99919 8.75039 11.1103 15 11.012 11.6817 13.9305 15 14.8579 15.4976 17.208 21 20.2601 20.904 21 8.94828 9.24754 9.91532 10 10.8224 11.8607 13.2702 15.4748 19.5275 21 9.24754 9.96472 15 10 10.7123 15 10.3006 10.6083 11.1984 11.8417 12.5489 13.3341 14.2165 15.2237 15.2672 16.4483 17.8647 19.6339 21 10.6083 11.2995 13.2727 15 15.2672 15.9146 17.6327 21 11.5968 13.4686 15 12.9943 14.5157 15 13.9492 15.3824 21 15.3101 21 16.6288 16.95 17.5214 18.1088 18.7134 19.3361 19.978 20.6403 20.6856 21 16.95 17.6394 21 20.6856 21 18.1317 19.5387 21 19.4534 20.8693 21 4.6551 5.16855 5.68535 6.20556 6.72922 7.25638 7.32812 7.8593 8.39408 8.48231 9.02134 9.54567 10.092 10.5339 11.0872 11.6369 12.198 12.7631 12.9571 13.5276 14.1023 14.1536 14.7329 15.1531 15.7398 16.3309 16.4032 16.9993 17.6 17.6845 18.2904 18.901 18.9308 19.5464 20.1668 20.3967 21 7.32812 7.52176 7.94263 8.40248 8.9093 9.47377 10.1107 10.8281 11.6828 12.7157 14.0215 15 17.2647 21 7.52176 8.1921 10 10.8281 11.6551 15 15 15.7345 18.2541 21 8.48231 8.71412 9.2244 9.76465 10.3386 10.9508 11.6065 12.3127 12.3645 13.1338 13.9734 14.8974 15.9246 17.081 18.4039 18.4049 19.9506 21 8.71412 9.31845 10.9502 15 12.3645 12.9644 14.607 21 18.4049 19.1285 21 9.54567 9.80043 10 10.5843 11.2956 12.2048 13.4662 15.5405 18.1072 21 9.80043 10.5051 14.401 15 10 10.7669 15 10.5339 11.699 15 11.6369 13.176 15 12.9571 13.1663 13.751 14.3609 14.9981 15.6653 16.3654 17.0936 17.8699 18.691 19.5625 20.491 21 13.1663 13.818 16.0636 21 17.0936 17.9494 21 14.1536 14.435 14.9531 15.5013 16.0834 16.7039 17.3682 18.083 18.1431 18.9218 19.7708 20.7039 21 14.435 15.1424 18.5624 21 18.1431 18.7966 21 15.1531 15.4203 16.038 16.7796 17.7078 18.9493 20.8301 21 15.4203 16.0872 18.3375 21 16.4032 16.6532 17.1632 17.6951 18.2507 18.8324 19.4428 20.0847 20.1668 20.8483 21 16.6532 17.5177 21 20.1668 20.9886 21 17.6845 19.2394 21 18.9308 19.2713 19.8835 20.6186 21 19.2713 20.0049 21 20.3967 21 6.44357 6.91367 7.38697 7.8635 8.34331 8.82645 9.31297 9.34402 9.83417 10.2625 10.7592 11.204 11.7075 12.2146 12.2845 12.7958 13.311 13.3615 13.8808 14.3689 14.8959 15.3337 15.868 16.4064 16.4562 16.9993 17.4955 18.0467 18.5223 19.0817 19.6457 19.688 20.2569 20.8305 20.8859 21 9.34402 9.59868 10 10.681 11.5218 12.6208 14.2108 17.1292 19.1038 21 9.59868 10.2319 12.1288 15 10 10.5739 12.3924 15 10.2625 10.5567 11.1667 11.9008 12.8225 14.0622 15 17.7267 20.0346 21 10.5567 11.1551 12.5703 15 15 15.6612 17.2511 21 11.204 11.4356 11.9619 12.5357 13.1667 13.8672 14.6546 15.5537 15.6639 16.7314 18.0152 19.6259 21 11.4356 12.1509 15 15.6639 16.2861 18.4581 21 12.2845 15 13.3615 13.5752 14.0234 14.4911 14.9801 15.4924 16.0302 16.5709 17.1671 17.7982 18.4686 19.1836 19.9494 20.7428 21 13.5752 14.2064 16.3039 21 16.5709 17.2009 19.2846 21 20.7428 21 14.3689 14.5469 15 15.6321 16.4171 17.4537 18.9836 21 14.5469 15.2415 20.2264 21 15 15.7723 21 15.3337 16.7615 21 16.4562 16.7265 17.2691 17.8353 18.4273 19.0474 19.6986 20.3841 20.3846 21 16.7265 17.3946 19.3606 21 20.3846 21 17.4955 19.4431 21 18.5223 20.2759 21 19.688 21 20.8859 21 8.52823 9.03592 9.547 10.0615 10.5795 11.101 11.5378 12.0659 12.5977 12.6774 13.2134 13.6987 14.242 14.7863 15.3373 15.8001 16.3585 16.831 17.3971 17.9673 18.035 18.61 19.187 19.7708 20.3591 20.4275 21 11.5378 11.7806 12.3386 12.9208 13.5293 14.1668 14.836 15.5403 15.5574 16.3017 17.0896 17.9267 18.8194 19.7757 20.7748 21 11.7806 12.4303 15 15.5574 16.2461 18.4233 21 20.7748 21 12.6774 12.9403 13.5038 14.0917 14.7064 15.3505 16.0268 16.735 17.4864 18.2821 19.1276 20.0296 20.9963 21 12.9403 13.6114 21 16.735 17.4933 21 13.6987 13.892 14.3585 14.8452 15.3539 15.8867 16.4459 17.0344 17.0483 17.6701 18.3281 19.0271 19.7724 20.5705 21 13.892 14.59 17.7078 21 17.0483 17.9243 21 14.7863 15.0522 15.5612 16.117 16.7289 17.4095 18.1764 19.0545 19.0555 20.0829 21 15.0522 15.7472 18.2259 21 19.0555 19.7962 21 15.8001 17.2317 21 16.831 21 18.035 18.3449 18.9739 19.7285 20.6716 21 18.3449 19.0667 21 19.187 19.4659 20.0488 20.7507 21 19.4659 20.1304 21 20.4275 20.7003 21 20.7003 21 10.8379 11.2981 11.7613 12.2276 12.697 13.1696 13.3681 13.8453 14.3258 14.3898 14.874 15.3217 15.8125 16.3068 16.3861 16.8845 17.3673 17.8728 18.3665 18.8793 19.3218 19.8416 20.3006 20.8278 21 13.3681 13.574 14.0623 14.5718 15.1044 15.6624 16.2481 16.8647 16.8845 17.5364 18.2266 18.9599 19.742 20.58 21 13.574 14.2276 17.8866 21 16.8845 17.5841 21 14.3898 14.6074 15.1306 15.6767 16.2477 16.8461 17.4747 18.0716 18.7668 19.5031 20.2856 21 14.6074 15.282 17.6116 21 18.0716 18.8091 21 15.3217 15.547 16.0218 16.5399 17.11 17.7438 18.4572 19.2699 20.2224 21 15.547 16.2288 21 19.2699 19.9322 21 16.3861 16.6853 17.3421 18.1293 19.1117 20.4192 21 16.6853 17.3746 19.2601 21 17.3673 17.6442 18.1933 18.7749 19.3928 20.052 20.7584 21 17.6442 18.3999 21 18.3665 18.576 19.0888 19.6316 20.2083 20.8234 21 18.576 19.2514 21 19.3218 21 20.3006 21 12.9437 13.4585 13.9767 14.4986 15.0241 15.5533 16.0012 16.5373 17.0743 17.6181 18.1659 18.2729 18.8255 19.3127 19.873 20.3633 20.9315 21 16.0012 21 17.0743 17.4528 18.1668 18.9462 19.804 20.7581 21 17.4528 18.118 19.7562 21 18.2729 18.5534 19.1092 19.6841 20.2795 20.8969 21 18.5534 19.1888 20.8546 21 19.3127 19.5925 20.152 20.7359 21 19.5925 20.2429 21 20.3633 21 15.1744 15.6399 16.1086 16.5805 17.0558 17.5343 17.933 18.4177 18.8593 19.3507 19.7576 20.2554 20.6276 21 17.933 18.1534 18.5869 19.0596 19.5792 20.1561 20.8044 21 18.1534 18.8914 21 18.8593 19.0906 19.5736 20.0999 20.6782 21 19.0906 19.7374 21 19.7576 19.9539 20.4853 21 19.9539 20.6486 21 20.6276 21 17.7705 18.3146 18.8623 19.4137 19.9688 20.5278 20.6137 21 20.6137 20.8345 21 20.8345 21 20.3489 20.8499 21 0 0.742376 3 
</DataArray>

</PointData>
<CellData Scalars=" CellData">
<DataArray type="Float32" Name="radius" NumberOfComponents="1" format="ascii" >
0.0526976 0.03 0.02 0.02 0.02 0.02 0.02 0.02 0.02 0.02 0.02 0.02 0.02 0.02 0.02 0.02 0.02 0.02 0.02 0.02 0.02 0.02 0.02 0.02 0.02 0.02 0.02 0.03 0.02 0.02 0.02 0.02 0.02 0.02 0.02 0.02 0.02 0.02 0.02 0.02 0.02 0.02 0.02 0.02 0.02 0.02 0.02 0.02 0.02 0.02 0.02 0.02 0.02 0.02 0.02 0.02 0.03 0.02 0.02 0.02 0.02 0.02 0.02 0.02 0.02 0.02 0.02 0.02 0.02 0.02 0.02 0.02 0.02 0.02 0.02 0.02 0.02 0.02 0.02 0.02 0.02 0.02 0.03 0.02 0.02 0.02 0.02 0.02 0.02 0.02 0.02 0.02 0.02 0.02 0.02 0.02 0.02 0.02 0.02 0.02 0.02 0.02 0.02 0.02 0.03 0.02 0.02 0.02 0.02 0.02 0.02 0.02 0.02 0.02 0.02 0.02 0.02 0.02 0.02 0.02 0.02 0.02 0.03 0.02 0.02 0.02 0.02 0.02 0.02 0.02 0.02 0.03 0.02 0.02 0.02 0.02 0.02 0.02 0.02 0.03 0.02 0.02 0.03 0.02 
</DataArray>
<DataArray type="Float32" Name="subType" NumberOfComponents="1" format="ascii" >
1 2 3 3 4 4 4 3 4 4 4 4 3 4 4 3 4 4 3 3 3 3 3 4 4 3 3 2 3 4 4 4 3 4 4 4 3 4 4 3 3 3 4 4 3 4 4 3 4 3 4 4 3 3 4 3 2 3 4 4 3 4 4 3 4 4 3 3 4 4 4 3 4 4 3 3 4 4 3 3 3 3 2 3 4 4 4 3 4 4 3 4 4 3 4 4 3 3 3 4 3 4 3 4 2 3 4 4 3 4 4 3 4 4 3 4 3 4 3 4 3 3 2 3 3 4 3 4 3 4 3 2 3 4 3 4 3 4 3 2 3 4 2 4 
</DataArray>
<DataArray type="Float32" Name="creationTime" NumberOfComponents="1" format="ascii" >
0 2.44254 5.57602 6.73394 6.932 10.6686 15 7.79553 7.99919 11.012 14.8579 20.2601 8.94828 9.24754 10 10.3006 10.6083 15.2672 11.5968 12.9943 13.9492 15.3101 16.6288 16.95 20.6856 18.1317 19.4534 4.6551 7.32812 7.52176 10.8281 15 8.48231 8.71412 12.3645 18.4049 9.54567 9.80043 10 10.5339 11.6369 12.9571 13.1663 17.0936 14.1536 14.435 18.1431 15.1531 15.4203 16.4032 16.6532 20.1668 17.6845 18.9308 19.2713 20.3967 6.44357 9.34402 9.59868 10 10.2625 10.5567 15 11.204 11.4356 15.6639 12.2845 13.3615 13.5752 16.5709 20.7428 14.3689 14.5469 15 15.3337 16.4562 16.7265 20.3846 17.4955 18.5223 19.688 20.8859 8.52823 11.5378 11.7806 15.5574 20.7748 12.6774 12.9403 16.735 13.6987 13.892 17.0483 14.7863 15.0522 19.0555 15.8001 16.831 18.035 18.3449 19.187 19.4659 20.4275 20.7003 10.8379 13.3681 13.574 16.8845 14.3898 14.6074 18.0716 15.3217 15.547 19.2699 16.3861 16.6853 17.3673 17.6442 18.3665 18.576 19.3218 20.3006 12.9437 16.0012 17.0743 17.4528 18.2729 18.5534 19.3127 19.5925 20.3633 15.1744 17.933 18.1534 18.8593 19.0906 19.7576 19.9539 20.6276 17.7705 20.6137 20.8345 20.3489 0 
</DataArray>

</CellData>
<Points>
<DataArray type="Float32" Name="Coordinates" NumberOfComponents="3" format="ascii" >
0 0 -3 -0.00388555 -0.0136054 -3.9999 -0.00608832 -0.0140654 -4.9999 -0.0072413 -0.0155737 -5.9999 0.00479342 -0.00805093 -6.80226 -0.000782637 0.00296774 -7.80218 0.0075512 0.057705 -8.80065 0.0778339 0.0499919 -9.79815 0.144993 0.103129 -10.7945 0.181053 0.195591 -11.7895 0.189303 0.126519 -12.7871 0.24007 0.0731166 -13.7844 0.257275 0.0327963 -14.7834 0.252851 0.0229413 -15.462 0.244866 -0.0155699 -16.4612 0.241489 -0.0183045 -17.4612 0.261699 -0.0430761 -18.4607 0.282148 -0.0531457 -19.4605 0.301823 -0.0644228 -20.4602 0.313389 -0.0484856 -21.46 0.322681 -0.0353161 -22.2685 0.298279 -0.0133146 -23.268 0.258886 -0.0143482 -24.2672 0.22249 -0.0371137 -25.2663 0.18432 -0.0225299 -26.2655 0.0615243 -0.074005 -27.2566 -0.0107065 -0.145371 -28.2514 -0.0471827 -0.176423 -29.2503 -0.0621024 -0.197148 -29.96 -0.0391885 -0.194356 -30.9598 -0.0210075 -0.188645 -31.9596 0.00841 -0.135657 -32.9578 0.0188225 -0.0837993 -33.9564 0.0379462 -0.0286028 -34.9546 0.0855934 -0.0197962 -35.9535 0.111348 -0.0219952 -36.9531 0.128087 0.00606801 -37.9526 0.139453 0.00576597 -38.2193 0.13298 0.0179329 -39.2192 0.173353 0.0155747 -40.2184 0.194378 0.0501884 -41.2176 0.212946 0.0485196 -42.2174 0.219523 0.0755628 -43.217 0.218701 0.0650299 -44.217 0.201616 0.120251 -45.2153 0.196342 0.134553 -45.5076 0.211554 0.117139 -46.5073 0.203599 0.0907698 -47.5069 0.185403 0.020924 -48.5043 0.116937 0.0129384 -49.5019 0.0728732 0.0599034 -50.4998 0.034858 0.0960364 -51.4985 0.0218027 0.120177 -52.4981 0.00972595 0.11937 -52.9772 0.0141117 0.234111 -53.9706 -0.0813317 0.206674 -54.9656 -0.256794 0.218131 -55.95 -0.369831 0.0576656 -56.9306 -0.384719 -0.0274389 -57.9269 -0.344151 0.026042 -58.9246 -0.303954 0.0788556 -59.9224 -0.26882 0.195924 -60.9149 -0.257832 0.246014 -61.3082 -0.209213 0.339291 -62.3026 -0.192747 0.330929 -63.3024 -0.195554 0.37001 -64.3017 -0.205202 0.295315 -65.2988 -0.196611 0.255691 -66.298 -0.16902 0.23062 -67.2973 -0.155973 0.233803 -68.2972 -0.119233 0.230557 -69.2965 -0.119071 0.231382 -69.3199 -0.167178 0.226809 -70.3188 -0.207466 0.228785 -71.318 -0.252624 0.226794 -72.3169 -0.264765 0.212515 -73.3168 -0.163895 0.227411 -74.3115 -0.143002 0.220013 -75.3113 -0.143443 0.203134 -76.3112 -0.133265 0.186754 -77.1602 -0.144529 0.184528 -77.4054 0.00479342 -0.00805093 -6.80226 -0.162422 -0.985703 -6.92967 -0.242915 -1.97458 -7.05477 -0.319982 -2.96622 -7.15823 -0.389349 -3.9582 -7.26389 -0.412212 -4.95244 -7.36862 -0.414475 -5.63289 -7.43537 -0.26091 -6.61725 -7.5217 -0.106255 -7.60033 -7.61979 -0.0991685 -7.64451 -7.62468 0.0113123 -8.63342 -7.72393 0.106504 -9.4745 -7.79263 0.243085 -10.4552 -7.93281 0.345289 -11.421 -8.0685 0.458699 -12.4052 -8.2041 0.441707 -13.3991 -8.31323 0.427777 -13.6852 -8.34057 0.271852 -14.6663 -8.45498 0.115271 -15.6473 -8.56933 0.0968952 -15.8022 -8.58755 0.06323 -16.7899 -8.74017 0.079224 -17.7848 -8.83992 0.0790198 -18.0718 -8.84539 0.0193343 -19.0697 -8.87158 -0.00741443 -19.6085 -8.89494 -0.0790695 -20.599 -9.01222 -0.158414 -21.5877 -9.13944 -0.166035 -21.7499 -9.15874 -0.202586 -22.7296 -9.35597 -0.26151 -23.7202 -9.47925 -0.265039 -23.7816 -9.48685 -0.227175 -24.78 -9.52928 -0.187081 -25.7779 -9.57992 -0.185155 -26.0867 -9.5928 -0.211596 -27.0858 -9.62657 -0.208701 -28.0787 -9.69706 -0.207431 -29.0778 -9.73848 -0.220495 -30.0726 -9.83992 -0.225491 -30.3653 -9.86518 -0.414475 -5.63289 -7.43537 0.350714 -5.80362 -7.97079 -0.0991685 -7.64451 -7.62468 0.128879 -7.70745 -7.99277 0.688895 -7.79704 -8.81639 1.34057 -7.87058 -9.57132 2.02183 -8.12734 -10.2568 2.62038 -8.27926 -11.0434 3.21834 -8.42624 -11.8313 3.83894 -8.29102 -12.555 4.42891 -8.14397 -13.3489 5.01823 -7.99278 -14.1426 5.63056 -7.90195 -14.9279 5.85644 -7.86707 -15.3073 6.50675 -8.04985 -16.0446 7.09907 -8.18798 -16.8142 0.128879 -7.70745 -7.99277 1.01186 -7.2615 -7.84622 1.64845 -6.96104 -7.75689 3.83894 -8.29102 -12.555 4.51201 -7.63895 -12.2061 5.19042 -6.99956 -11.8442 5.33532 -6.88546 -11.745 5.85644 -7.86707 -15.3073 6.8388 -7.7912 -15.1364 7.79015 -7.70979 -14.8392 7.83592 -7.70596 -14.8282 0.106504 -9.4745 -7.79263 0.0218251 -9.68875 -7.40015 -0.218639 -10.1708 -6.55767 -0.241323 -10.8724 -5.84546 -0.297008 -11.6319 -5.19734 -0.593668 -12.2505 -4.46975 -0.812421 -12.7803 -3.65036 -1.03269 -13.3099 -2.8312 -1.03281 -13.3102 -2.83077 -1.21971 -13.8328 -1.99894 -1.44442 -14.298 -1.14272 -1.61644 -14.6992 -0.24302 -1.9266 -15.1766 0.579087 -2.2576 -15.672 1.38221 -2.64523 -16.1806 2.11795 -2.96227 -16.8019 2.83449 -3.25999 -17.4258 3.55706 -3.5024 -18.0812 4.27235 -3.7352 -18.7083 5.0157 -3.96899 -19.2823 5.80047 -4.17796 -19.7963 6.63244 -4.18026 -19.803 6.64252 -4.32703 -20.1544 7.17464 0.0218251 -9.68875 -7.40015 0.0503538 -9.12055 -6.57775 0.0560549 -8.51725 -5.78026 0.0361158 -8.41193 -5.66122 -1.03281 -13.3102 -2.83077 -1.95991 -12.9354 -2.82901 -2.8626 -12.5568 -3.03346 -2.93667 -12.5175 -3.05537 -2.64523 -16.1806 2.11795 -1.84293 -16.545 2.59066 -0.946682 -16.7789 2.96758 -0.704038 -16.8117 3.0524 -4.18026 -19.803 6.64252 -3.40597 -20.4342 6.68804 -3.32223 -20.494 6.68233 0.345289 -11.421 -8.0685 -0.116073 -11.5554 -8.22592 -0.942157 -11.8808 -8.686 -1.03341 -11.8986 -8.75406 -1.85911 -12.2116 -9.2234 -2.7487 -12.5272 -9.55361 -3.57982 -12.7297 -10.0715 -4.39684 -13.0373 -10.5592 -5.09107 -13.2911 -11.0027 -5.22056 -13.3331 -11.0669 -0.116073 -11.5554 -8.22592 -0.53445 -10.7392 -8.62433 -0.977058 -9.9289 -9.00141 -1.03341 -11.8986 -8.75406 -1.14789 -12.8619 -8.9968 -1.26351 -13.7722 -9.21964 0.427777 -13.6852 -8.34057 0.0326639 -13.8719 -7.99811 -0.802889 -14.2897 -7.64138 -1.45691 -14.5326 -6.92496 -2.0789 -14.8805 -6.22347 -2.81719 -15.2905 -5.68793 -3.48585 -15.6314 -5.02711 -4.07297 -15.8647 -4.25194 -4.09693 -15.8752 -4.22157 -4.52593 -15.9737 -3.32366 -5.03221 -16.3123 -2.53052 -5.58332 -16.7079 -1.79584 -5.92937 -17.0917 -1.45478 0.0326639 -13.8719 -7.99811 -0.519964 -14.4132 -8.63181 -1.04074 -14.9925 -9.25889 -1.13012 -15.0916 -9.36708 -4.09693 -15.8752 -4.22157 -3.89297 -16.77 -3.8244 -3.55152 -17.6542 -3.50573 -3.50275 -17.8958 -3.42234 0.0968952 -15.8022 -8.58755 -0.391132 -16.2179 -9.35506 -0.413643 -16.2426 -9.39256 0.0790198 -18.0718 -8.84539 0.210987 -18.3351 -9.80104 0.218748 -18.3478 -9.84361 -0.00741443 -19.6085 -8.89494 0.88608 -19.9819 -9.14439 0.939887 -20.0077 -9.15367 -0.166035 -21.7499 -9.15874 0.30029 -21.9782 -8.4607 -0.265039 -23.7816 -9.48685 -0.789086 -24.0159 -9.50487 -1.68632 -24.4475 -9.41184 -2.61179 -24.7464 -9.17915 -3.5452 -25.0461 -8.98177 -4.45493 -25.4288 -8.82081 -5.31674 -25.9177 -8.68577 -6.11271 -26.5107 -8.56408 -6.16714 -26.5497 -8.55874 -6.54642 -26.8092 -8.50544 -0.789086 -24.0159 -9.50487 -0.622918 -24.9418 -9.16566 -0.523715 -25.634 -8.91924 -6.16714 -26.5497 -8.55874 -6.19071 -26.7564 -8.08415 -0.185155 -26.0867 -9.5928 0.613523 -26.367 -10.1253 0.670913 -26.3775 -10.1584 -0.208701 -28.0787 -9.69706 -1.05715 -28.1907 -9.17978 -1.069 -28.1924 -9.17254 0.252851 0.0229413 -15.462 1.05578 0.532148 -15.7719 1.86586 1.0805 -15.9795 2.68729 1.59901 -16.2169 3.51889 2.08654 -16.483 4.3506 2.59299 -16.7105 4.46287 2.66154 -16.7432 5.26513 3.21413 -16.9691 6.07091 3.77523 -17.1585 6.20456 3.86581 -17.1892 7.01606 4.41766 -17.3813 7.79572 4.93742 -17.617 8.62693 5.47025 -17.7757 9.28302 5.92061 -17.8888 10.1109 6.46592 -18.0199 10.9337 6.99755 -18.1377 11.7619 7.54188 -18.2711 12.5197 8.18719 -18.3679 12.777 8.40907 -18.4031 13.5495 9.02929 -18.5394 14.4072 9.5429 -18.5656 14.4839 9.58741 -18.5677 15.3401 10.0835 -18.7124 15.9415 10.4759 -18.7751 16.7823 11.0081 -18.8737 17.631 11.532 -18.9459 17.734 11.5963 -18.9548 18.555 12.1672 -18.9673 19.3711 12.745 -18.976 19.4867 12.8239 -18.9837 20.3185 13.3744 -19.055 21.1282 13.951 -19.1644 21.1675 13.9791 -19.1693 21.9779 14.5582 -19.259 22.8122 15.0999 -19.3612 23.1155 15.306 -19.397 23.8612 15.8951 -19.5477 4.46287 2.66154 -16.7432 4.79621 2.3424 -16.5804 5.38192 1.64668 -16.1646 6.00014 0.955928 -15.7896 6.61222 0.274463 -15.3884 7.24788 -0.431653 -15.0764 8.035 -0.987885 -14.8098 8.91191 -1.32002 -14.5152 9.63712 -1.9065 -14.1545 10.4019 -2.49444 -13.8911 11.023 -3.16428 -13.4841 11.3641 -3.59383 -13.2543 12.04 -4.24454 -12.9083 12.6292 -4.82797 -12.5213 4.79621 2.3424 -16.5804 5.43255 2.61218 -15.8577 5.94023 2.76815 -15.3598 8.91191 -1.32002 -14.5152 8.91555 -2.31067 -14.6516 8.89747 -2.91951 -14.7169 11.3641 -3.59383 -13.2543 12.1499 -2.99335 -13.1063 12.9192 -2.35715 -13.0478 13.0117 -2.2881 -13.0374 6.20456 3.86581 -17.1892 6.13965 4.01517 -17.6332 6.03325 4.30188 -18.5853 5.63286 4.71088 -19.4053 5.57264 5.12927 -20.3116 5.50904 5.41206 -21.2686 5.45448 5.76827 -22.2014 5.59971 6.00585 -23.1619 5.61818 6.02292 -23.2276 5.60252 5.96953 -24.2261 5.50898 5.90149 -25.2194 5.37 6.1017 -26.1892 5.27145 6.55858 -27.0733 5.14704 7.12713 -27.8865 5.03503 7.68356 -28.7098 5.03495 7.68396 -28.7104 4.935 8.16269 -29.5826 4.76995 8.40138 -30.0954 6.13965 4.01517 -17.6332 6.34293 3.15759 -18.1057 6.52777 2.34682 -18.6611 6.55059 2.14485 -18.8153 5.61818 6.02292 -23.2276 5.26204 5.19627 -23.6633 4.85996 4.46827 -24.2186 4.74811 4.28165 -24.3407 5.03495 7.68396 -28.7104 4.16519 7.5161 -29.1744 3.43778 7.42407 -29.5359 7.79572 4.93742 -17.617 7.68502 5.23471 -18.0364 7.62682 5.43649 -18.3583 7.4689 5.96204 -19.1943 7.37337 6.48153 -20.0434 7.22511 7.0026 -20.884 6.99336 7.71618 -21.5451 6.90349 8.4234 -22.2464 6.86899 8.83969 -22.6988 6.82697 9.02891 -22.9335 7.68502 5.23471 -18.0364 7.62446 6.22566 -17.9166 7.66225 7.21687 -17.7898 7.66281 7.22714 -17.7883 7.62682 5.43649 -18.3583 7.21324 6.32214 -18.1472 6.89024 6.89935 -17.9767 9.28302 5.92061 -17.8888 9.67479 5.7684 -18.7962 9.73226 5.76601 -18.9059 10.9337 6.99755 -18.1377 11.5239 6.99825 -17.3304 11.568 7.00076 -17.2597 12.777 8.40907 -18.4031 13.0531 8.35059 -18.6393 13.6891 8.23999 -19.403 14.3263 8.14199 -20.1674 14.8709 8.01847 -20.997 15.444 7.88617 -21.8057 16.1236 7.8669 -22.539 16.8617 7.78961 -23.1932 17.7098 7.66479 -23.7081 18.5228 7.60408 -24.2871 19.1938 7.44817 -25.012 19.8611 7.28871 -25.7395 20.2194 7.21174 -26.11 13.0531 8.35059 -18.6393 13.7719 7.68882 -18.4264 14.4676 7.03552 -18.1277 14.551 6.95146 -18.0876 16.8617 7.78961 -23.1932 17.7808 8.06763 -22.9139 18.2884 8.24964 -22.722 14.4839 9.58741 -18.5677 14.8967 9.2657 -18.7855 15.6284 8.72306 -19.198 16.387 8.25566 -19.6519 17.1418 7.75541 -20.0762 17.8937 7.25361 -20.5039 18.4067 6.60887 -21.0706 19.1787 6.09302 -21.4419 19.2403 6.0525 -21.4748 19.9568 5.48793 -21.8846 20.6476 4.90919 -22.3179 21.4682 4.43157 -22.6319 21.7101 4.28771 -22.7272 14.8967 9.2657 -18.7855 14.5323 8.37022 -19.0412 13.9103 7.58901 -19.0938 13.8877 7.56092 -19.0956 19.2403 6.0525 -21.4748 19.6747 6.79321 -21.9873 19.9772 7.52468 -22.5468 15.9415 10.4759 -18.7751 16.3892 10.29 -18.7271 17.3085 9.91299 -18.6143 18.15 9.38619 -18.4943 18.9629 8.87544 -18.2145 19.7024 8.28805 -17.8857 20.4854 7.7597 -17.5575 20.5378 7.72175 -17.5374 16.3892 10.29 -18.7271 17.1869 10.8745 -18.8755 17.9435 11.4161 -19.2418 18.0199 11.4926 -19.3018 17.734 11.5963 -18.9548 18.1175 11.3035 -19.1054 18.8824 10.7015 -19.3344 19.6362 10.1288 -19.6566 20.3051 9.47421 -20.0088 21.03 8.86274 -20.3261 21.7422 8.23775 -20.6456 22.4719 7.56187 -20.7492 22.5694 7.48784 -20.7698 23.2769 6.85484 -21.0842 23.4594 6.74915 -21.1268 18.1175 11.3035 -19.1054 18.0928 10.6965 -18.3111 18.0249 10.426 -17.9256 22.5694 7.48784 -20.7698 22.2659 6.53525 -20.7914 22.2633 6.52684 -20.7915 19.4867 12.8239 -18.9837 19.9347 12.3498 -19.7417 19.9647 12.3239 -19.784 21.1675 13.9791 -19.1693 21.3316 14.0507 -18.5622 21.5207 14.0207 -17.5807 21.6401 13.9358 -16.5915 21.6989 13.9015 -16.1518 21.3316 14.0507 -18.5622 20.4277 14.3987 -18.3135 19.9727 14.573 -18.1847 23.1155 15.306 -19.397 22.935 15.7717 -19.8082 0.322681 -0.0353161 -22.2685 -0.326141 0.569794 -22.7299 -0.947065 1.19864 -23.1979 -1.563 1.82774 -23.6721 -2.17921 2.45641 -24.1465 -2.77723 3.10715 -24.6144 -3.31953 3.84379 -25.0185 -3.354 3.8905 -25.0444 -3.94527 4.60261 -25.423 -4.46234 5.24506 -25.6943 -4.97965 6.02128 -26.0547 -5.58619 6.62129 -26.3062 -6.25156 7.28859 -26.6409 -6.86988 8.01179 -26.9485 -6.95297 8.11012 -26.9961 -7.57483 8.79269 -27.38 -8.19224 9.47785 -27.7665 -8.25263 9.54417 -27.805 -8.81492 10.2071 -28.2994 -9.35751 10.8069 -28.7646 -9.99173 11.4252 -29.2289 -10.5146 11.9408 -29.605 -11.1718 12.5948 -29.9796 -11.8194 13.2523 -30.3647 -11.8788 13.3111 -30.4035 -12.5636 13.8725 -30.868 -13.1929 14.3794 -31.28 -13.8871 14.9772 -31.681 -14.3893 15.5564 -32.0627 -15.0992 16.171 -32.4066 -15.7867 16.8048 -32.761 -15.8386 16.8513 -32.788 -16.5457 17.4613 -33.1456 -17.1953 18.1227 -33.5206 -17.2581 18.1852 -33.5582 -17.3847 18.3112 -33.6429 -3.354 3.8905 -25.0444 -3.67132 4.1548 -24.8088 -4.14164 4.52791 -24.4805 -4.87081 4.85043 -23.8769 -5.64272 5.01465 -23.2628 -6.30047 5.02255 -22.5096 -6.98766 4.97368 -21.7847 -7.48971 4.96277 -20.92 -7.68492 4.97986 -20.6448 -7.78877 4.99263 -20.487 -3.67132 4.1548 -24.8088 -4.56688 3.77797 -24.5722 -5.41005 3.36955 -24.2225 -5.57553 3.31737 -24.174 -4.14164 4.52791 -24.4805 -3.54158 5.07153 -23.8936 -3.05583 5.71994 -23.3075 -2.98278 5.82591 -23.2248 -4.46234 5.24506 -25.6943 -4.89075 5.06068 -25.9782 -5.68807 4.6396 -26.4106 -6.4593 4.17627 -26.8471 -7.17616 3.66267 -27.3186 -7.88711 3.17202 -27.8224 -8.27781 2.95822 -28.1599 -8.97373 2.57755 -28.7688 -9.25867 2.30632 -28.9144 -9.33409 2.23584 -28.9527 -4.89075 5.06068 -25.9782 -5.41625 5.83537 -26.3299 -6.07025 6.48442 -26.7185 -6.29449 6.70147 -26.8506 -8.27781 2.95822 -28.1599 -8.03688 3.7321 -28.7456 -7.84085 4.35454 -29.5033 -7.75986 4.58458 -29.75 -5.58619 6.62129 -26.3062 -5.34439 7.01429 -26.3775 -4.7582 7.78806 -26.6176 -4.13841 8.5169 -26.9085 -3.38364 9.14335 -27.1032 -2.66279 9.81975 -27.2543 -1.93982 10.4949 -27.4009 -1.33249 11.2629 -27.6044 -1.26566 11.3519 -27.625 -0.628851 12.0435 -27.9657 -0.133889 12.9104 -28.0238 0.382845 13.7623 -28.1096 0.730361 14.3369 -28.1674 -5.34439 7.01429 -26.3775 -5.62248 7.87164 -25.9443 -5.87435 8.80656 -25.7535 -1.26566 11.3519 -27.625 -1.77257 12.2102 -27.5456 -2.17631 13.1186 -27.6539 -2.21387 13.2239 -27.6626 -6.95297 8.11012 -26.9961 -7.38547 7.98825 -27.7951 -8.25263 9.54417 -27.805 -8.3624 9.8583 -27.4431 -8.57592 10.3856 -26.6207 -8.69575 11.0693 -25.9008 -8.84483 11.7604 -25.1936 -9.15536 12.5278 -24.6326 -9.45238 13.326 -24.1086 -9.72934 14.0784 -23.5875 -10.0047 14.7755 -22.9255 -10.4364 15.3037 -22.1943 -10.5844 16.0568 -21.5533 -10.6415 16.8044 -20.8916 -10.7945 17.5275 -20.218 -10.9918 18.0393 -19.4259 -11.0431 18.2398 -19.2122 -8.3624 9.8583 -27.4431 -8.14889 9.28729 -26.6504 -7.91524 8.62178 -25.9415 -7.88327 8.52901 -25.8422 -9.72934 14.0784 -23.5875 -9.1653 14.1986 -22.7705 -8.75627 14.4166 -21.8844 -8.71024 14.4426 -21.78 -10.9918 18.0393 -19.4259 -11.129 17.7929 -19.1093 -9.35751 10.8069 -28.7646 -9.28852 11.1654 -28.7915 -9.17941 11.9929 -28.9306 -8.96904 12.9704 -28.945 -8.68511 13.9035 -28.7244 -8.67349 14.8808 -28.5127 -8.6746 15.8792 -28.4558 -8.45672 16.6125 -28.3711 -9.28852 11.1654 -28.7915 -9.61049 11.5262 -29.6668 -9.9026 12.0742 -30.4506 -9.90367 12.0763 -30.4536 -9.17941 11.9929 -28.9306 -9.38676 12.6103 -28.1718 -9.5055 13.279 -27.6791 -10.5146 11.9408 -29.605 -11.1689 11.966 -28.8492 -11.2021 11.9648 -28.8174 -11.8788 13.3111 -30.4035 -11.5758 13.722 -30.4616 -10.9822 14.5197 -30.5684 -10.4961 15.3926 -30.6095 -9.89525 16.1861 -30.7059 -9.38058 17.0397 -30.6246 -8.81567 17.8614 -30.5502 -8.25271 18.6841 -30.4705 -8.25231 18.6847 -30.4704 -7.71019 19.3445 -30.4617 -11.5758 13.722 -30.4616 -10.6006 13.5056 -30.4155 -9.61699 13.326 -30.4348 -9.46919 13.2751 -30.4233 -8.25231 18.6847 -30.4704 -8.13712 18.8788 -29.6073 -13.1929 14.3794 -31.28 -12.9157 15.3165 -31.0678 -12.901 15.3665 -31.0569 -14.3893 15.5564 -32.0627 -14.0092 15.5132 -32.9866 -13.9995 15.5117 -33.0118 -15.8386 16.8513 -32.788 -15.3951 17.5486 -33.0952 -17.2581 18.1852 -33.5582 -17.4667 18.2478 -33.4722 -0.0621024 -0.197148 -29.96 0.515671 0.616852 -29.9002 1.10519 1.42197 -29.8349 1.67319 2.24002 -29.7446 2.23044 3.06632 -29.6627 2.75099 3.9125 -29.5487 3.1783 4.6195 -29.4479 3.69681 5.46208 -29.3022 4.24007 6.29676 -29.2118 4.31937 6.42256 -29.199 4.85853 7.26474 -29.1921 5.38954 7.98933 -29.1494 5.91026 8.84303 -29.1567 6.43412 9.68847 -29.1695 6.92615 10.5378 -29.3606 7.3819 11.2047 -29.5687 7.91115 12.0045 -29.8519 8.35519 12.6803 -30.081 8.80979 13.5227 -30.3702 9.28111 14.3729 -30.6049 9.33681 14.4732 -30.6326 9.81045 15.299 -30.9389 10.2923 16.1094 -31.2595 10.7779 16.9196 -31.5877 11.201 17.7956 -31.8193 11.2529 17.8962 -31.8441 11.7061 18.7376 -31.9769 3.1783 4.6195 -29.4479 3.42599 4.77168 -29.7891 3.95869 5.1703 -30.5357 4.63592 5.6141 -31.1225 5.12054 6.02484 -31.8948 5.75693 6.34771 -32.5954 6.45305 6.64888 -33.2471 7.04171 6.91134 -34.0117 7.05624 6.91845 -34.0289 7.79271 7.00164 -34.7002 8.49166 7.11652 -35.4061 9.05969 7.45843 -36.1547 9.63239 7.51679 -36.9724 10.3438 7.81274 -37.6098 10.9209 8.14058 -38.3192 11.0483 8.21273 -38.4685 3.42599 4.77168 -29.7891 3.97029 4.0883 -30.2757 4.53867 3.38852 -30.6878 7.05624 6.91845 -34.0289 7.93117 6.60787 -33.6573 8.82439 6.33756 -33.2981 8.95481 6.29351 -33.2444 10.9209 8.14058 -38.3192 10.827 7.91631 -38.5873 4.31937 6.42256 -29.199 4.2678 6.75854 -29.5396 4.14441 7.45449 -30.247 4.10155 8.12995 -30.9832 4.15696 8.85139 -31.6734 4.08875 9.52373 -32.4105 4.02898 10.1827 -33.1603 3.96389 10.8271 -33.9155 4.10606 11.4951 -34.6459 3.89887 12.1736 -35.3507 3.70094 12.8143 -36.0926 3.44233 13.4308 -36.8362 3.60169 13.981 -37.6559 3.60229 13.983 -37.6589 4.2678 6.75854 -29.5396 5.06789 7.3533 -29.4615 5.70085 7.95238 -29.4242 3.96389 10.8271 -33.9155 4.85379 11.0757 -34.2979 5.35218 11.3656 -34.5721 5.38954 7.98933 -29.1494 5.74036 7.76633 -29.0535 6.6143 7.32322 -28.8539 7.45828 6.79144 -28.7838 8.34409 6.33326 -28.7102 9.26639 5.9956 -28.5222 10.1308 5.59222 -28.2222 10.9796 5.13693 -27.9533 10.999 5.12626 -27.9471 11.8276 4.60968 -27.7311 12.7242 4.21333 -27.5336 13.6023 3.81061 -27.2755 14.4935 3.42728 -27.0328 15.3773 3.08794 -26.7108 15.8364 2.90993 -26.5798 5.74036 7.76633 -29.0535 6.53246 7.95857 -29.6329 7.21455 8.40401 -30.2128 7.25343 8.42056 -30.2416 10.999 5.12626 -27.9471 10.6813 4.676 -27.1127 10.5738 4.39686 -26.6301 6.43412 9.68847 -29.1695 6.18115 10.1753 -29.2644 5.72605 11.0496 -29.4331 5.20209 11.8972 -29.3488 4.72645 12.765 -29.2051 4.14543 13.4756 -29.6019 3.60898 14.2909 -29.8198 3.08883 15.0839 -30.1371 3.0883 15.0847 -30.1374 2.60955 15.9378 -30.3446 2.23985 16.5832 -30.502 6.18115 10.1753 -29.2644 5.32377 9.89066 -29.6933 4.48845 9.77752 -30.2313 4.39801 9.76614 -30.2822 3.0883 15.0847 -30.1374 3.35815 15.9132 -29.6468 3.51359 16.4463 -29.3304 7.3819 11.2047 -29.5687 8.15954 11.1445 -30.1945 8.18979 11.1421 -30.2195 8.35519 12.6803 -30.081 9.20995 12.721 -29.772 9.33681 14.4732 -30.6326 9.19739 14.8995 -30.3021 8.94935 15.6641 -29.7072 8.69905 16.429 -29.1138 8.36962 16.8591 -28.2732 8.24264 17.0335 -28.0738 9.19739 14.8995 -30.3021 9.94937 15.539 -30.1424 10.6006 16.0761 -29.9459 10.2923 16.1094 -31.2595 10.1039 16.201 -31.7592 9.62475 16.3749 -32.6195 9.13284 16.5022 -33.4808 8.96816 16.5467 -33.7383 10.1039 16.201 -31.7592 9.32502 15.5875 -31.8897 8.84852 15.1956 -32.0379 11.2529 17.8962 -31.8441 11.6707 17.9183 -31.645 12.1205 17.9614 -31.4401 11.6707 17.9183 -31.645 11.9015 18.3543 -31.7207 0.139453 0.00576597 -38.2193 1.03375 0.0530435 -38.6643 1.93343 0.0828655 -39.0998 2.83237 0.163121 -39.5305 3.68228 0.220467 -40.0543 4.55388 0.188171 -40.5434 4.92283 0.172222 -40.7394 5.79691 0.139483 -41.2241 6.70083 0.130415 -41.6517 6.82178 0.132045 -41.7061 7.72758 0.175301 -42.1276 8.54963 0.219007 -42.5343 9.44567 0.297043 -42.9714 10.3329 0.380867 -43.4251 10.4755 0.390663 -43.4966 11.4031 0.366564 -43.8696 12.2898 0.342228 -44.2415 13.1823 0.285064 -44.689 14.0637 0.23319 -45.0902 15.004 0.224077 -45.4304 15.78 0.215964 -45.7941 16.6823 0.354571 -46.2022 17.5098 0.460915 -46.471 18.4327 0.600735 -46.8297 18.7328 0.662243 -46.938 4.92283 0.172222 -40.7394 4.93744 -0.0418255 -41.117 4.97182 -0.535087 -41.9862 4.99275 -1.07217 -42.8295 5.02389 -1.45751 -43.7517 5.03952 -1.90911 -44.6438 5.16447 -2.21441 -45.5878 5.15726 -2.