<?xml version="1.0"?><VTKFile type="PolyData" version="0.1" byte_order="LittleEndian">
<PolyData>
<Piece NumberOfLines="62" NumberOfPoints="421">
<PointData Scalars=" PointData">
<DataArray type="Float32" Name="time" NumberOfComponents="1" format="ascii" >
0 0.242236 0.48535 0.72935 0.925803 1.17142 1.41793 1.66536 1.9137 2.16297 2.41317 2.66431 2.91639 3.08802 3.3417 3.59635 3.85197 4.10857 4.36616 4.62474 4.83459 5.09499 5.3564 5.61884 5.88232 6.14683 6.41239 6.67901 6.86902 7.13747 7.40699 7.67761 7.94932 8.22214 8.49607 8.77113 9.04733 9.12125 9.3989 9.6777 9.95766 10.2388 10.5211 10.8046 11.0894 11.1729 11.4592 11.7467 12.0355 12.3255 12.6168 12.9094 13.2032 13.3445 13.6402 13.9373 14.2357 14.5354 14.8365 15 2.44254 2.98509 3.53132 4.08127 4.635 5.19257 5.57602 6.14016 6.70827 6.73394 7.30627 7.79553 8.37548 8.94828 9.53662 10.1293 10.3006 10.8989 11.5017 11.5968 12.2049 12.8176 12.9943 13.6131 13.9492 14.5753 15 5.57602 10 6.73394 6.932 7.41208 7.93603 8.51266 9.15377 9.87562 10.6686 11.6277 12.7799 14.223 15 6.932 7.65155 10 10.6686 11.2861 12.9876 15 7.79553 7.99919 8.45759 8.93182 9.42301 9.93243 10.4615 11.0117 11.012 11.5852 12.1834 12.8088 13.4641 14.1523 14.8579 15 7.99919 8.75039 11.1103 15 11.012 11.6817 13.9305 15 14.8579 15 8.94828 9.24754 9.91532 10 10.8224 11.8607 13.2702 15 9.24754 9.96472 15 10 10.7123 15 10.3006 10.6083 11.1984 11.8417 12.5489 13.3341 14.2165 15 10.6083 11.2995 13.2727 15 11.5968 13.4686 15 12.9943 14.5157 15 13.9492 15 4.6551 5.16855 5.68535 6.20556 6.72922 7.25638 7.32812 7.8593 8.39408 8.48231 9.02134 9.54567 10.092 10.5339 11.0872 11.6369 12.198 12.7631 12.9571 13.5276 14.1023 14.1536 14.7329 15 7.32812 7.52176 7.94263 8.40248 8.9093 9.47377 10.1107 10.8281 11.6828 12.7157 14.0215 15 7.52176 8.1921 10 10.8281 11.6551 15 8.48231 8.71412 9.2244 9.76465 10.3386 10.9508 11.6065 12.3127 12.3645 13.1338 13.9734 14.8974 15 8.71412 9.31845 10.9502 15 12.3645 12.9644 14.607 15 9.54567 9.80043 10 10.5843 11.2956 12.2048 13.4662 15 9.80043 10.5051 14.401 15 10 10.7669 15 10.5339 11.699 15 11.6369 13.176 15 12.9571 13.1663 13.751 14.3609 14.9981 15 13.1663 13.818 15 14.1536 14.435 14.9531 15 14.435 15 6.44357 6.91367 7.38697 7.8635 8.34331 8.82645 9.31297 9.34402 9.83417 10.2625 10.7592 11.204 11.7075 12.2146 12.2845 12.7958 13.311 13.3615 13.8808 14.3689 14.8959 15 9.34402 9.59868 10 10.681 11.5218 12.6208 14.2108 15 9.59868 10.2319 12.1288 15 10 10.5739 12.3924 15 10.2625 10.5567 11.1667 11.9008 12.8225 14.0622 15 10.5567 11.1551 12.5703 15 11.204 11.4356 11.9619 12.5357 13.1667 13.8672 14.6546 15 11.4356 12.1509 15 12.2845 15 13.3615 13.5752 14.0234 14.4911 14.9801 15 13.5752 14.2064 15 14.3689 14.5469 15 14.5469 15 8.52823 9.03592 9.547 10.0615 10.5795 11.101 11.5378 12.0659 12.5977 12.6774 13.2134 13.6987 14.242 14.7863 15 11.5378 11.7806 12.3386 12.9208 13.5293 14.1668 14.836 15 11.7806 12.4303 15 12.6774 12.9403 13.5038 14.0917 14.7064 15 12.9403 13.6114 15 13.6987 13.892 14.3585 14.8452 15 13.892 14.59 15 14.7863 15 10.8379 11.2981 11.7613 12.2276 12.697 13.1696 13.3681 13.8453 14.3258 14.3898 14.874 15 13.3681 13.574 14.0623 14.5718 15 13.574 14.2276 15 14.3898 14.6074 15 14.6074 15 12.9437 13.4585 13.9767 14.4986 15 0 0.742376 3 
</DataArray>

</PointData>
<CellData Scalars=" CellData">
<DataArray type="Float32" Name="radius" NumberOfComponents="1" format="ascii" >
0.0526976 0.03 0.02 0.02 0.02 0.02 0.02 0.02 0.02 0.02 0.02 0.02 0.02 0.02 0.02 0.02 0.02 0.02 0.03 0.02 0.02 0.02 0.02 0.02 0.02 0.02 0.02 0.02 0.02 0.02 0.02 0.02 0.02 0.02 0.03 0.02 0.02 0.02 0.02 0.02 0.02 0.02 0.02 0.02 0.02 0.02 0.02 0.03 0.02 0.02 0.02 0.02 0.02 0.02 0.02 0.03 0.02 0.02 0.02 0.02 0.03 0.02 
</DataArray>
<DataArray type="Float32" Name="subType" NumberOfComponents="1" format="ascii" >
1 2 3 3 4 4 3 4 4 4 3 4 4 3 4 3 3 3 2 3 4 4 3 4 4 3 4 4 3 3 3 4 3 4 2 3 4 4 3 4 3 4 3 3 4 3 4 2 3 4 3 4 3 4 3 2 3 4 3 4 2 4 
</DataArray>
<DataArray type="Float32" Name="creationTime" NumberOfComponents="1" format="ascii" >
0 2.44254 5.57602 6.73394 6.932 10.6686 7.79553 7.99919 11.012 14.8579 8.94828 9.24754 10 10.3006 10.6083 11.5968 12.9943 13.9492 4.6551 7.32812 7.52176 10.8281 8.48231 8.71412 12.3645 9.54567 9.80043 10 10.5339 11.6369 12.9571 13.1663 14.1536 14.435 6.44357 9.34402 9.59868 10 10.2625 10.5567 11.204 11.4356 12.2845 13.3615 13.5752 14.3689 14.5469 8.52823 11.5378 11.7806 12.6774 12.9403 13.6987 13.892 14.7863 10.8379 13.3681 13.574 14.3898 14.6074 12.9437 0 
</DataArray>

</CellData>
<Points>
<DataArray type="Float32" Name="Coordinates" NumberOfComponents="3" format="ascii" >
0 0 -3 -0.00388555 -0.0136054 -3.9999 -0.00608832 -0.0140654 -4.9999 -0.0072413 -0.0155737 -5.9999 0.00479342 -0.00805093 -6.80226 -0.000782637 0.00296774 -7.80218 0.0075512 0.057705 -8.80065 0.0778339 0.0499919 -9.79815 0.144993 0.103129 -10.7945 0.181053 0.195591 -11.7895 0.189303 0.126519 -12.7871 0.24007 0.0731166 -13.7844 0.257275 0.0327963 -14.7834 0.252851 0.0229413 -15.462 0.244866 -0.0155699 -16.4612 0.241489 -0.0183045 -17.4612 0.261699 -0.0430761 -18.4607 0.282148 -0.0531457 -19.4605 0.301823 -0.0644228 -20.4602 0.313389 -0.0484856 -21.46 0.322681 -0.0353161 -22.2685 0.298279 -0.0133146 -23.268 0.258886 -0.0143482 -24.2672 0.22249 -0.0371137 -25.2663 0.18432 -0.0225299 -26.2655 0.0615243 -0.074005 -27.2566 -0.0107065 -0.145371 -28.2514 -0.0471827 -0.176423 -29.2503 -0.0621024 -0.197148 -29.96 -0.0391885 -0.194356 -30.9598 -0.0210075 -0.188645 -31.9596 0.00841 -0.135657 -32.9578 0.0188225 -0.0837993 -33.9564 0.0379462 -0.0286028 -34.9546 0.0855934 -0.0197962 -35.9535 0.111348 -0.0219952 -36.9531 0.128087 0.00606801 -37.9526 0.139453 0.00576597 -38.2193 0.13298 0.0179329 -39.2192 0.173353 0.0155747 -40.2184 0.194378 0.0501884 -41.2176 0.212946 0.0485196 -42.2174 0.219523 0.0755628 -43.217 0.218701 0.0650299 -44.217 0.201616 0.120251 -45.2153 0.196342 0.134553 -45.5076 0.211554 0.117139 -46.5073 0.203599 0.0907698 -47.5069 0.185403 0.020924 -48.5043 0.116937 0.0129384 -49.5019 0.0728732 0.0599034 -50.4998 0.034858 0.0960364 -51.4985 0.0218027 0.120177 -52.4981 0.00972595 0.11937 -52.9772 0.0141117 0.234111 -53.9706 -0.0813317 0.206674 -54.9656 -0.256794 0.218131 -55.95 -0.369831 0.0576656 -56.9306 -0.384719 -0.0274389 -57.9269 -0.344813 -0.0114059 -58.4665 0.00479342 -0.00805093 -6.80226 -0.162422 -0.985703 -6.92967 -0.242915 -1.97458 -7.05477 -0.319982 -2.96622 -7.15823 -0.389349 -3.9582 -7.26389 -0.412212 -4.95244 -7.36862 -0.414475 -5.63289 -7.43537 -0.26091 -6.61725 -7.5217 -0.106255 -7.60033 -7.61979 -0.0991685 -7.64451 -7.62468 0.0113123 -8.63342 -7.72393 0.106504 -9.4745 -7.79263 0.243085 -10.4552 -7.93281 0.345289 -11.421 -8.0685 0.458699 -12.4052 -8.2041 0.441707 -13.3991 -8.31323 0.427777 -13.6852 -8.34057 0.271852 -14.6663 -8.45498 0.115271 -15.6473 -8.56933 0.0968952 -15.8022 -8.58755 0.06323 -16.7899 -8.74017 0.079224 -17.7848 -8.83992 0.0790198 -18.0718 -8.84539 0.0193343 -19.0697 -8.87158 -0.00741443 -19.6085 -8.89494 -0.0790695 -20.599 -9.01222 -0.132029 -21.2653 -9.09718 -0.414475 -5.63289 -7.43537 0.350714 -5.80362 -7.97079 -0.0991685 -7.64451 -7.62468 0.128879 -7.70745 -7.99277 0.688895 -7.79704 -8.81639 1.34057 -7.87058 -9.57132 2.02183 -8.12734 -10.2568 2.62038 -8.27926 -11.0434 3.21834 -8.42624 -11.8313 3.83894 -8.29102 -12.555 4.42891 -8.14397 -13.3489 5.01823 -7.99278 -14.1426 5.63056 -7.90195 -14.9279 5.85644 -7.86707 -15.3073 0.128879 -7.70745 -7.99277 1.01186 -7.2615 -7.84622 1.64845 -6.96104 -7.75689 3.83894 -8.29102 -12.555 4.51201 -7.63895 -12.2061 5.19042 -6.99956 -11.8442 5.33532 -6.88546 -11.745 0.106504 -9.4745 -7.79263 0.0218251 -9.68875 -7.40015 -0.218639 -10.1708 -6.55767 -0.241323 -10.8724 -5.84546 -0.297008 -11.6319 -5.19734 -0.593668 -12.2505 -4.46975 -0.812421 -12.7803 -3.65036 -1.03269 -13.3099 -2.8312 -1.03281 -13.3102 -2.83077 -1.21971 -13.8328 -1.99894 -1.44442 -14.298 -1.14272 -1.61644 -14.6992 -0.24302 -1.9266 -15.1766 0.579087 -2.2576 -15.672 1.38221 -2.64523 -16.1806 2.11795 -2.7122 -16.2998 2.25026 0.0218251 -9.68875 -7.40015 0.0503538 -9.12055 -6.57775 0.0560549 -8.51725 -5.78026 0.0361158 -8.41193 -5.66122 -1.03281 -13.3102 -2.83077 -1.95991 -12.9354 -2.82901 -2.8626 -12.5568 -3.03346 -2.93667 -12.5175 -3.05537 -2.64523 -16.1806 2.11795 -2.42281 -16.2624 2.25707 0.345289 -11.421 -8.0685 -0.116073 -11.5554 -8.22592 -0.942157 -11.8808 -8.686 -1.03341 -11.8986 -8.75406 -1.85911 -12.2116 -9.2234 -2.7487 -12.5272 -9.55361 -3.57982 -12.7297 -10.0715 -4.25698 -12.9848 -10.4757 -0.116073 -11.5554 -8.22592 -0.53445 -10.7392 -8.62433 -0.977058 -9.9289 -9.00141 -1.03341 -11.8986 -8.75406 -1.14789 -12.8619 -8.9968 -1.26351 -13.7722 -9.21964 0.427777 -13.6852 -8.34057 0.0326639 -13.8719 -7.99811 -0.802889 -14.2897 -7.64138 -1.45691 -14.5326 -6.92496 -2.0789 -14.8805 -6.22347 -2.81719 -15.2905 -5.68793 -3.48585 -15.6314 -5.02711 -4.01559 -15.8181 -4.47169 0.0326639 -13.8719 -7.99811 -0.519964 -14.4132 -8.63181 -1.04074 -14.9925 -9.25889 -1.13012 -15.0916 -9.36708 0.0968952 -15.8022 -8.58755 -0.391132 -16.2179 -9.35506 -0.413643 -16.2426 -9.39256 0.0790198 -18.0718 -8.84539 0.210987 -18.3351 -9.80104 0.218748 -18.3478 -9.84361 -0.00741443 -19.6085 -8.89494 0.824799 -19.9544 -9.12702 0.252851 0.0229413 -15.462 1.05578 0.532148 -15.7719 1.86586 1.0805 -15.9795 2.68729 1.59901 -16.2169 3.51889 2.08654 -16.483 4.3506 2.59299 -16.7105 4.46287 2.66154 -16.7432 5.26513 3.21413 -16.9691 6.07091 3.77523 -17.1585 6.20456 3.86581 -17.1892 7.01606 4.41766 -17.3813 7.79572 4.93742 -17.617 8.62693 5.47025 -17.7757 9.28302 5.92061 -17.8888 10.1109 6.46592 -18.0199 10.9337 6.99755 -18.1377 11.7619 7.54188 -18.2711 12.5197 8.18719 -18.3679 12.777 8.40907 -18.4031 13.5495 9.02929 -18.5394 14.4072 9.5429 -18.5656 14.4839 9.58741 -18.5677 15.3401 10.0835 -18.7124 15.7242 10.3291 -18.7616 4.46287 2.66154 -16.7432 4.79621 2.3424 -16.5804 5.38192 1.64668 -16.1646 6.00014 0.955928 -15.7896 6.61222 0.274463 -15.3884 7.24788 -0.431653 -15.0764 8.035 -0.987885 -14.8098 8.91191 -1.32002 -14.5152 9.63712 -1.9065 -14.1545 10.4019 -2.49444 -13.8911 11.023 -3.16428 -13.4841 11.3641 -3.59383 -13.2543 4.79621 2.3424 -16.5804 5.43255 2.61218 -15.8577 5.94023 2.76815 -15.3598 8.91191 -1.32002 -14.5152 8.91555 -2.31067 -14.6516 8.89747 -2.91951 -14.7169 6.20456 3.86581 -17.1892 6.13965 4.01517 -17.6332 6.03325 4.30188 -18.5853 5.63286 4.71088 -19.4053 5.57264 5.12927 -20.3116 5.50904 5.41206 -21.2686 5.45448 5.76827 -22.2014 5.59971 6.00585 -23.1619 5.61818 6.02292 -23.2276 5.60252 5.96953 -24.2261 5.50898 5.90149 -25.2194 5.37 6.1017 -26.1892 5.36213 6.13355 -26.289 6.13965 4.01517 -17.6332 6.34293 3.15759 -18.1057 6.52777 2.34682 -18.6611 6.55059 2.14485 -18.8153 5.61818 6.02292 -23.2276 5.26204 5.19627 -23.6633 4.85996 4.46827 -24.2186 4.82531 4.40384 -24.2507 7.79572 4.93742 -17.617 7.68502 5.23471 -18.0364 7.62682 5.43649 -18.3583 7.4689 5.96204 -19.1943 7.37337 6.48153 -20.0434 7.22511 7.0026 -20.884 6.99336 7.71618 -21.5451 6.8032 8.28237 -22.0726 7.68502 5.23471 -18.0364 7.62446 6.22566 -17.9166 7.66225 7.21687 -17.7898 7.66281 7.22714 -17.7883 7.62682 5.43649 -18.3583 7.21324 6.32214 -18.1472 6.89024 6.89935 -17.9767 9.28302 5.92061 -17.8888 9.67479 5.7684 -18.7962 9.73226 5.76601 -18.9059 10.9337 6.99755 -18.1377 11.5239 6.99825 -17.3304 11.568 7.00076 -17.2597 12.777 8.40907 -18.4031 13.0531 8.35059 -18.6393 13.6891 8.23999 -19.403 14.3263 8.14199 -20.1674 14.8709 8.01847 -20.997 14.8724 8.01812 -20.9994 13.0531 8.35059 -18.6393 13.7719 7.68882 -18.4264 14.3468 7.24735 -18.1652 14.4839 9.58741 -18.5677 14.8967 9.2657 -18.7855 15.6284 8.72306 -19.198 15.693 8.67612 -19.2348 14.8967 9.2657 -18.7855 14.701 8.47032 -19.0086 0.322681 -0.0353161 -22.2685 -0.326141 0.569794 -22.7299 -0.947065 1.19864 -23.1979 -1.563 1.82774 -23.6721 -2.17921 2.45641 -24.1465 -2.77723 3.10715 -24.6144 -3.31953 3.84379 -25.0185 -3.354 3.8905 -25.0444 -3.94527 4.60261 -25.423 -4.46234 5.24506 -25.6943 -4.97965 6.02128 -26.0547 -5.58619 6.62129 -26.3062 -6.25156 7.28859 -26.6409 -6.86988 8.01179 -26.9485 -6.95297 8.11012 -26.9961 -7.57483 8.79269 -27.38 -8.19224 9.47785 -27.7665 -8.25263 9.54417 -27.805 -8.81492 10.2071 -28.2994 -9.35751 10.8069 -28.7646 -9.99173 11.4252 -29.2289 -10.1162 11.5471 -29.3201 -3.354 3.8905 -25.0444 -3.67132 4.1548 -24.8088 -4.14164 4.52791 -24.4805 -4.87081 4.85043 -23.8769 -5.64272 5.01465 -23.2628 -6.30047 5.02255 -22.5096 -6.98766 4.97368 -21.7847 -7.22796 4.92164 -21.5295 -3.67132 4.1548 -24.8088 -4.56688 3.77797 -24.5722 -5.41005 3.36955 -24.2225 -5.57553 3.31737 -24.174 -4.14164 4.52791 -24.4805 -3.54158 5.07153 -23.8936 -3.05583 5.71994 -23.3075 -2.98278 5.82591 -23.2248 -4.46234 5.24506 -25.6943 -4.89075 5.06068 -25.9782 -5.68807 4.6396 -26.4106 -6.4593 4.17627 -26.8471 -7.17616 3.66267 -27.3186 -7.88711 3.17202 -27.8224 -8.27781 2.95822 -28.1599 -4.89075 5.06068 -25.9782 -5.41625 5.83537 -26.3299 -6.07025 6.48442 -26.7185 -6.29449 6.70147 -26.8506 -5.58619 6.62129 -26.3062 -5.34439 7.01429 -26.3775 -4.7582 7.78806 -26.6176 -4.13841 8.5169 -26.9085 -3.38364 9.14335 -27.1032 -2.66279 9.81975 -27.2543 -1.93982 10.4949 -27.4009 -1.67321 10.7665 -27.5272 -5.34439 7.01429 -26.3775 -5.62248 7.87164 -25.9443 -5.87435 8.80656 -25.7535 -6.95297 8.11012 -26.9961 -7.38547 7.98825 -27.7951 -8.25263 9.54417 -27.805 -8.3624 9.8583 -27.4431 -8.57592 10.3856 -26.6207 -8.69575 11.0693 -25.9008 -8.84483 11.7604 -25.1936 -8.85062 11.7876 -25.1652 -8.3624 9.8583 -27.4431 -8.14889 9.28729 -26.6504 -8.00136 8.85947 -26.2211 -9.35751 10.8069 -28.7646 -9.28852 11.1654 -28.7915 -9.17941 11.9929 -28.9306 -9.28852 11.1654 -28.7915 -9.53897 11.3808 -29.4392 -0.0621024 -0.197148 -29.96 0.515671 0.616852 -29.9002 1.10519 1.42197 -29.8349 1.67319 2.24002 -29.7446 2.23044 3.06632 -29.6627 2.75099 3.9125 -29.5487 3.1783 4.6195 -29.4479 3.69681 5.46208 -29.3022 4.24007 6.29676 -29.2118 4.31937 6.42256 -29.199 4.85853 7.26474 -29.1921 5.38954 7.98933 -29.1494 5.91026 8.84303 -29.1567 6.43412 9.68847 -29.1695 6.65514 10.0071 -29.1965 3.1783 4.6195 -29.4479 3.42599 4.77168 -29.7891 3.95869 5.1703 -30.5357 4.63592 5.6141 -31.1225 5.12054 6.02484 -31.8948 5.75693 6.34771 -32.5954 6.45305 6.64888 -33.2471 6.59888 6.72 -33.4206 3.42599 4.77168 -29.7891 3.97029 4.0883 -30.2757 4.53867 3.38852 -30.6878 4.31937 6.42256 -29.199 4.2678 6.75854 -29.5396 4.14441 7.45449 -30.247 4.10155 8.12995 -30.9832 4.15696 8.85139 -31.6734 4.14012 9.15845 -32.0179 4.2678 6.75854 -29.5396 5.06789 7.3533 -29.4615 5.59846 7.79661 -29.4172 5.38954 7.98933 -29.1494 5.74036 7.76633 -29.0535 6.6143 7.32322 -28.8539 7.45828 6.79144 -28.7838 7.73084 6.64871 -28.7547 5.74036 7.76633 -29.0535 6.53246 7.95857 -29.6329 6.82047 8.01293 -29.8084 6.43412 9.68847 -29.1695 6.21422 10.0749 -29.2352 0.139453 0.00576597 -38.2193 1.03375 0.0530435 -38.6643 1.93343 0.0828655 -39.0998 2.83237 0.163121 -39.5305 3.68228 0.220467 -40.0543 4.55388 0.188171 -40.5434 4.92283 0.172222 -40.7394 5.79691 0.139483 -41.2241 6.70083 0.130415 -41.6517 6.82178 0.132045 -41.7061 7.72758 0.175301 -42.1276 7.96263 0.182773 -42.236 4.92283 0.172222 -40.7394 4.93744 -0.0418255 -41.117 4.97182 -0.535087 -41.9862 4.99275 -1.07217 -42.8295 4.97251 -1.44773 -43.544 4.93744 -0.0418255 -41.117 4.16102 0.185622 -41.7047 3.77079 0.30821 -42.0957 6.82178 0.132045 -41.7061 6.92982 -0.143971 -42.0156 7.14681 -0.643383 -42.5375 6.92982 -0.143971 -42.0156 6.65135 -0.737386 -41.9663 0.196342 0.134553 -45.5076 -0.45868 0.770961 -45.9149 -1.08449 1.43065 -46.331 -1.71468 2.0851 -46.7488 -2.24366 2.70321 -47.2475 0 0 -3 0.0643827 -0.926964 -3.36958 0.0404192 -1.64686 -3.67995 
</DataArray>
</Points>
<Lines>
<DataArray type="Int32" Name="connectivity" NumberOfComponents="1" format="ascii" >
0 1 2 3 4 5 6 7 8 9 10 11 12 13 14 15 16 17 18 19 20 21 22 23 24 25 26 27 28 29 30 31 32 33 34 35 36 37 38 39 40 41 42 43 44 45 46 47 48 49 50 51 52 53 54 55 56 57 58 59 60 61 62 63 64 65 66 67 68 69 70 71 72 73 74 75 76 77 78 79 80 81 82 83 84 85 86 87 88 89 90 91 92 93 94 95 96 97 98 99 100 101 102 103 104 105 106 107 108 109 110 111 112 113 114 115 116 117 118 119 120 121 122 123 124 125 126 127 128 129 130 131 132 133 134 135 136 137 138 139 140 141 142 143 144 145 146 147 148 149 150 151 152 153 154 155 156 157 158 159 160 161 162 163 164 165 166 167 168 169 170 171 172 173 174 175 176 177 178 179 180 181 182 183 184 185 186 187 188 189 190 191 192 193 194 195 196 197 198 199 200 201 202 203 204 205 206 207 208 209 210 211 212 213 214 215 216 217 218 219 220 221 222 223 224 225 226 227 228 229 230 231 232 233 234 235 236 237 238 239 240 241 242 243 244 245 246 247 248 249 250 251 252 253 254 255 256 257 258 259 260 261 262 263 264 265 266 267 268 269 270 271 272 273 274 275 276 277 278 279 280 281 282 283 284 285 286 287 288 289 290 291 292 293 294 295 296 297 298 299 300 301 302 303 304 305 306 307 308 309 310 311 312 313 314 315 316 317 318 319 320 321 322 323 324 325 326 327 328 329 330 331 332 333 334 335 336 337 338 339 340 341 342 343 344 345 346 347 348 349 350 351 352 353 354 355 356 357 358 359 360 361 362 363 364 365 366 367 368 369 370 371 372 373 374 375 376 377 378 379 380 381 382 383 384 385 386 387 388 389 390 391 392 393 394 395 396 397 398 399 400 401 402 403 404 405 406 407 408 409 410 411 412 413 414 415 416 417 418 419 420 
</DataArray>
<DataArray type="Int32" Name="offsets" NumberOfComponents="1" format="ascii" >
60 87 89 101 104 108 124 128 132 134 142 145 148 156 160 163 166 168 192 204 207 210 223 227 231 239 243 246 249 252 258 261 265 267 289 297 301 305 312 316 324 327 329 335 338 341 343 358 366 369 375 378 383 386 388 400 405 408 411 413 418 421 
</DataArray>

</Lines>
</Piece>
</PolyData>
</VTKFile>
