<?xml version="1.0"?><VTKFile type="PolyData" version="0.1" byte_order="LittleEndian">
<PolyData>
<Piece NumberOfLines="108" NumberOfPoints="718">
<PointData Scalars=" PointData">
<DataArray type="Float32" Name="time" NumberOfComponents="1" format="ascii" >
0 0.141576 0.283879 0.432687 0.57838 0.732743 0.902543 1.05703 1.23016 1.39723 1.53179 1.68331 1.85599 2.01572 2.20733 2.3841 2.54893 2.71373 2.86253 3.03523 3.21909 3.40869 3.56554 3.73565 3.91984 4.11589 4.28884 4.45711 4.60633 4.74837 4.9213 5.10412 5.26677 5.4469 5.63581 5.82554 6.00104 6.17556 6.32991 6.51864 6.73607 6.90432 7.1042 7.29091 7.5052 7.69886 7.89534 8.07555 8.25159 8.42579 8.60954 8.80332 9.01631 9.21151 9.42114 9.5934 9.78111 9.97169 10.1624 10.356 10.5465 10.7474 10.9138 11.0899 11.2504 11.4368 11.6184 11.8122 12.031 12.2202 12.3927 12.5757 12.7825 12.9883 13.2007 13.3885 13.5889 13.7894 13.983 14.2012 14.4586 14.6282 14.8104 15.0347 15.29 15.5254 15.748 15.921 16.1643 16.4187 16.604 16.8439 17.0582 17.2716 17.5077 17.669 17.891 18.1023 18.3798 18.5612 18.8163 19.0478 19.2753 19.4876 19.7385 19.9813 20.2226 20.4309 20.6805 20.8846 21 5.94912 7.53112 9.33046 11.4165 13.8984 16.9622 20.9671 21 6.10659 7.79697 9.7196 11.9486 14.6005 17.8742 21 6.27129 7.58982 9.0895 10.8282 12.8967 15.4502 18.7882 21 6.4326 7.73555 9.21751 10.9356 12.9797 15.5031 18.8016 21 6.60355 8.06789 9.73342 11.6644 13.9616 16.7976 20.5047 21 6.79165 8.47446 10.3885 12.6075 15.2475 18.5065 21 6.96284 8.4422 10.1248 12.0755 14.3964 17.2614 21 7.15475 8.76632 10.5993 12.7244 15.2526 18.3737 21 7.34 8.67177 10.1865 11.9426 14.0319 16.6111 19.9825 21 7.48925 8.791 10.2716 11.9881 14.0303 16.5514 19.8469 21 7.65737 8.95871 10.4388 12.1548 14.1964 16.7167 20.0111 21 7.849 9.25755 10.8596 12.717 14.9267 17.6546 21 8.02632 9.65109 11.4991 13.6416 16.1905 19.3372 21 8.23911 9.56244 11.0676 12.8126 14.8886 17.4515 20.8016 21 8.43548 9.90219 11.5704 13.5044 15.8054 18.6459 21 8.61866 9.83387 11.216 12.8185 14.7249 17.0783 20.1548 21 8.80186 10.3063 12.0174 14.0013 16.3614 19.275 21 8.96732 10.2188 11.6423 13.2925 15.2559 17.6796 20.8479 21 9.15943 10.5306 12.0902 13.8984 16.0495 18.7051 21 9.36401 10.6377 12.0864 13.7659 15.7641 18.2308 21 9.57505 10.9272 12.4652 14.2482 16.3695 18.9882 21 9.7497 11.0702 12.572 14.3132 16.3847 18.942 21 9.93919 11.2925 12.8318 14.6164 16.7395 19.3605 21 10.1444 11.4974 13.0362 14.8203 16.9428 19.5631 21 10.363 11.8383 13.5164 15.462 17.7766 20.6339 21 10.5558 12.097 13.8499 15.8821 18.2998 21 10.7435 12.0367 13.5075 15.2127 17.2414 19.7458 21 10.91 12.425 14.1481 16.1457 18.5224 21 11.0686 12.4663 14.0562 15.8994 18.0922 20.7993 21 11.2616 12.8115 14.5743 16.6181 19.0495 21 11.4658 13.1726 15.1138 17.3644 20.0419 21 11.6476 13.1101 14.7737 16.7023 18.9968 21 11.8489 13.3406 15.0372 17.0042 19.3444 21 12.0601 13.762 15.6977 17.9418 20.6117 21 12.2723 13.8823 15.7134 17.8363 20.3619 21 12.4687 13.8643 15.4515 17.2917 19.4811 21 12.6641 13.9413 15.3941 17.0783 19.082 21 12.8369 14.3021 15.9686 17.9007 20.1993 21 13.0483 14.4697 16.0863 17.9605 20.1903 21 13.292 14.5814 16.0479 17.7482 19.771 21 13.4806 15.198 17.1514 19.4161 21 13.7048 15.348 17.217 19.3839 21 13.9143 15.1601 16.5771 18.2199 20.1744 21 14.1548 15.6698 17.393 19.3907 21 14.3723 15.9234 17.6875 19.7328 21 14.593 15.9885 17.5756 19.4157 21 14.7956 16.2027 17.8031 19.6586 21 14.9935 16.5007 18.215 20.2025 21 15.1894 16.7649 18.5568 20.6343 21 15.3962 16.7332 18.254 20.0171 21 15.6143 16.9551 18.4801 20.2481 21 15.8542 17.2726 18.8859 20.7563 21 16.0741 17.5359 19.1985 21 16.3104 17.6621 19.1995 20.9818 21 16.5046 17.8741 19.4317 21 16.7164 17.8545 19.1489 20.6495 21 16.9315 18.258 19.7667 21 17.1469 18.7149 20.4985 21 17.3655 18.8834 20.6097 21 17.5807 19.0651 20.7535 21 17.8079 19.3385 21 17.9961 19.2834 20.7476 21 18.1954 19.4462 20.8688 21 18.3769 19.6264 21 18.5881 20.0323 21 18.7938 20.0764 21 19.0134 20.515 21 19.2615 20.5308 21 19.4762 20.7509 21 19.6719 21 19.8797 21 20.1146 21 20.3485 21 20.59 21 20.8036 21 7 7.18031 7.39201 7.60649 7.80587 7.99645 8.17676 8.3656 8.54891 8.75663 8.98144 9.18234 9.37421 9.55074 9.78493 10.0326 10.2035 10.4074 10.6119 10.8671 11.0543 11.2568 11.466 11.6741 11.8859 12.1317 12.3483 12.5732 12.7786 12.9716 13.1948 13.4343 13.6393 13.8637 14.0573 14.2699 14.4939 14.7346 14.9719 15.2461 15.4894 15.7592 15.9968 16.2515 16.4565 16.6903 16.9172 17.1633 17.37 17.6292 17.8564 18.0914 18.2976 18.5127 18.7523 18.9933 19.1933 19.4228 19.6534 19.858 20.1088 20.332 20.5551 20.8094 21 15.694 17.3241 19.1781 21 15.9317 17.1785 18.5967 20.2409 21 16.1726 17.6664 19.3654 21 16.3967 18.0095 19.844 21 16.6109 17.9125 19.3929 21 16.8136 17.9663 19.2772 20.7971 21 17.0261 18.4194 20.0042 21 17.2323 18.9059 20.8094 21 17.4661 18.7244 20.1556 21 17.7192 18.918 20.2815 21 17.9455 19.3836 21 18.1617 19.564 21 18.3607 19.8695 21 18.6247 19.9129 21 18.904 19.9341 21 19.0969 20.4935 21 19.327 20.5582 21 19.558 21 19.8463 21 20.0578 21 20.2868 21 20.5233 21 20.7588 21 20.9984 21 14 14.1711 14.3405 14.5043 14.6714 14.8594 15.0237 15.2117 15.3416 15.5317 15.7114 15.898 16.066 16.2739 16.4586 16.6249 16.8041 16.9921 17.1665 17.3402 17.5258 17.6998 17.8516 18.0592 18.2127 18.3466 18.5212 18.7222 18.8987 19.0727 19.2678 19.4626 19.6952 19.8558 20.0952 20.2733 20.4559 20.6406 20.7941 21 19.9813 21 20.1683 21 20.3491 21 20.5337 21 20.7414 21 20.923 21 
</DataArray>

</PointData>
<CellData Scalars=" CellData">
<DataArray type="Float32" Name="radius" NumberOfComponents="1" format="ascii" >
0.13841 0.0511998 0.049688 0.0476313 0.0530609 0.0393278 0.0422876 0.0532199 0.0538645 0.054696 0.0479805 0.062879 0.0488618 0.0505991 0.0484824 0.040527 0.0580364 0.0513263 0.056636 0.0449166 0.0505312 0.0474992 0.0458512 0.0436724 0.0558562 0.0535673 0.0430422 0.0481727 0.0567424 0.0428063 0.0472477 0.0493782 0.0458944 0.0488051 0.0475346 0.0548495 0.049586 0.0482991 0.0529768 0.050743 0.0517593 0.0506807 0.0436501 0.0451558 0.0543114 0.0598026 0.0474807 0.0490908 0.0494757 0.0516607 0.0455104 0.054502 0.048514 0.0533214 0.0566843 0.0487865 0.0490833 0.0512577 0.0466626 0.055375 0.0467634 0.0455772 0.0460649 0.0551783 0.0482101 0.0507686 0.0523669 0.0450786 0.0530409 0.0508228 0.0567052 0.0530102 0.0564651 0.0542104 0.0543851 0.055397 0.117895 0.0499514 0.0532096 0.0489175 0.0431173 0.0584928 0.0487425 0.0541551 0.0556868 0.048021 0.0549777 0.0443055 0.0489235 0.0484284 0.0439103 0.0589092 0.0466052 0.0484814 0.0653428 0.0531422 0.0493987 0.0542286 0.0413507 0.055252 0.0481247 0.128533 0.0552853 0.0576293 0.0476736 0.0513554 0.0473724 0.0629042 
</DataArray>
<DataArray type="Float32" Name="subType" NumberOfComponents="1" format="ascii" >
1 2 2 2 2 2 2 2 2 2 2 2 2 2 2 2 2 2 2 2 2 2 2 2 2 2 2 2 2 2 2 2 2 2 2 2 2 2 2 2 2 2 2 2 2 2 2 2 2 2 2 2 2 2 2 2 2 2 2 2 2 2 2 2 2 2 2 2 2 2 2 2 2 2 2 2 4 2 2 2 2 2 2 2 2 2 2 2 2 2 2 2 2 2 2 2 2 2 2 2 2 4 2 2 2 2 2 2 
</DataArray>
<DataArray type="Float32" Name="creationTime" NumberOfComponents="1" format="ascii" >
0 5.94912 6.10659 6.27129 6.4326 6.60355 6.79165 6.96284 7.15475 7.34 7.48925 7.65737 7.849 8.02632 8.23911 8.43548 8.61866 8.80186 8.96732 9.15943 9.36401 9.57505 9.7497 9.93919 10.1444 10.363 10.5558 10.7435 10.91 11.0686 11.2616 11.4658 11.6476 11.8489 12.0601 12.2723 12.4687 12.6641 12.8369 13.0483 13.292 13.4806 13.7048 13.9143 14.1548 14.3723 14.593 14.7956 14.9935 15.1894 15.3962 15.6143 15.8542 16.0741 16.3104 16.5046 16.7164 16.9315 17.1469 17.3655 17.5807 17.8079 17.9961 18.1954 18.3769 18.5881 18.7938 19.0134 19.2615 19.4762 19.6719 19.8797 20.1146 20.3485 20.59 20.8036 7 15.694 15.9317 16.1726 16.3967 16.6109 16.8136 17.0261 17.2323 17.4661 17.7192 17.9455 18.1617 18.3607 18.6247 18.904 19.0969 19.327 19.558 19.8463 20.0578 20.2868 20.5233 20.7588 20.9984 14 19.9813 20.1683 20.3491 20.5337 20.7414 20.923 
</DataArray>

</CellData>
<Points>
<DataArray type="Float32" Name="Coordinates" NumberOfComponents="3" format="ascii" >
0 0 -3 0.306968 0.317935 -3.02895 0.624113 0.625652 -3.07275 0.950857 0.949302 -3.12782 1.27054 1.26595 -3.17406 1.60021 1.60332 -3.25136 1.96689 1.9563 -3.37732 2.31051 2.26793 -3.4826 2.68857 2.62002 -3.60781 3.06104 2.95281 -3.71778 3.37026 3.21232 -3.79417 3.70945 3.50884 -3.8942 4.11702 3.80356 -4.04274 4.47998 4.10473 -4.15008 4.92718 4.43654 -4.30678 5.35735 4.72639 -4.42484 5.75546 4.99179 -4.55009 6.14354 5.26626 -4.68108 6.49361 5.51223 -4.79966 6.9106 5.76464 -4.96234 7.38021 5.98762 -5.12711 7.86605 6.19488 -5.31478 8.26701 6.34758 -5.487 8.69914 6.50226 -5.68535 9.16367 6.63317 -5.92696 9.66019 6.77049 -6.17684 10.0926 6.88668 -6.40698 10.5083 7.00264 -6.63563 10.859 7.09593 -6.86999 11.1904 7.18488 -7.09451 11.595 7.29404 -7.36336 12.0379 7.38582 -7.62944 12.4217 7.4298 -7.88912 12.8329 7.44853 -8.19682 13.2567 7.43486 -8.52682 13.6786 7.41876 -8.85999 14.0598 7.42814 -9.17701 14.4112 7.42284 -9.52089 14.7204 7.41179 -9.82455 15.098 7.36527 -10.1915 15.5337 7.31079 -10.6103 15.8564 7.26979 -10.9468 16.2386 7.22123 -11.3451 16.5869 7.16365 -11.7213 17.0147 7.15504 -12.1277 17.394 7.15093 -12.4998 17.7814 7.08293 -12.8658 18.0971 6.96821 -13.2242 18.3906 6.85327 -13.584 18.6546 6.75462 -13.9624 18.9285 6.66285 -14.3658 19.2061 6.57014 -14.7976 19.4834 6.41402 -15.272 19.73 6.28136 -15.7121 19.9961 6.13678 -16.1812 20.2018 6.00866 -16.5689 20.4118 5.8372 -16.9851 20.6264 5.6665 -17.4063 20.8321 5.47702 -17.8224 21.04 5.28236 -18.242 21.2226 5.0705 -18.6532 21.4046 4.89393 -19.1104 21.5453 4.7496 -19.4922 21.69 4.60764 -19.9 21.7805 4.48703 -20.2852 21.8877 4.36273 -20.7356 22.0007 4.23887 -21.1697 22.0768 4.10917 -21.6412 22.1648 3.97214 -22.1738 22.2447 3.86436 -22.6345 22.329 3.75 -23.0468 22.4093 3.63376 -23.4858 22.4911 3.48334 -23.9763 22.5197 3.30221 -24.4576 22.5524 3.13553 -24.9592 22.5616 3.00557 -25.4072 22.5785 2.87044 -25.8845 22.6024 2.75482 -26.3651 22.6263 2.64856 -26.8285 22.6366 2.52173 -27.3479 22.6403 2.35817 -27.9545 22.672 2.24776 -28.3507 22.6688 2.17552 -28.7863 22.6878 2.1011 -29.3225 22.692 2.05837 -29.9352 22.7114 2.03461 -30.4982 22.7486 2.0125 -31.0273 22.7709 2.00075 -31.4379 22.8045 1.98214 -32.013 22.8364 1.96229 -32.612 22.8592 1.94799 -33.0463 22.8885 1.93226 -33.607 22.898 1.92626 -34.1065 22.9239 1.92796 -34.6017 22.939 1.91488 -35.1476 22.9478 1.91159 -35.5194 22.9369 1.90905 -36.0296 22.9287 1.90596 -36.5133 22.9387 1.91025 -37.1459 22.9416 1.91052 -37.5578 22.9411 1.90953 -38.1349 22.9254 1.91937 -38.656 22.906 1.9254 -39.166 22.8805 1.92747 -39.6397 22.8627 1.92373 -40.198 22.8452 1.91918 -40.7358 22.8237 1.90794 -41.2679 22.7826 1.9145 -41.724 22.7335 1.91969 -42.2682 22.6858 1.92699 -42.7109 22.6651 1.93408 -42.961 0.306968 0.317935 -3.02895 -0.37743 1.02384 -2.84647 -1.0613 1.68882 -2.54626 -1.66886 2.44112 -2.29148 -2.29167 3.14535 -1.95066 -2.90913 3.89643 -1.71692 -3.47991 4.66472 -1.4272 -3.48392 4.67011 -1.42519 0.624113 0.625652 -3.07275 0.314446 0.745213 -2.12945 0.00983772 0.849083 -1.18265 -0.35042 0.986127 -0.259923 -0.6101 1.13738 0.693853 -0.848124 1.22183 1.66143 -1.0757 1.23232 2.38623 0.950857 0.949302 -3.12782 0.406 1.35952 -3.85915 -0.147172 1.78039 -4.57809 -0.692775 2.1532 -5.32864 -1.10155 2.55741 -6.14688 -1.577 3.02067 -6.89477 -2.12045 3.53082 -7.56142 -2.36611 3.76431 -7.94643 1.27054 1.26595 -3.17406 0.647996 1.98295 -2.86044 0.0161594 2.69349 -2.55073 -0.640137 3.33414 -2.15218 -1.20311 4.04625 -1.7327 -1.79328 4.7928 -1.42551 -2.36564 5.52812 -1.06258 -2.6788 5.89386 -0.878111 1.60021 1.60332 -3.25136 1.31383 1.30779 -4.16276 1.08894 1.02283 -5.09454 0.930172 0.688938 -6.02369 0.708776 0.323972 -6.928 0.399261 0.0433377 -7.83654 0.09492 -0.237741 -8.74669 0.0588004 -0.268338 -8.84814 1.96689 1.9563 -3.37732 2.7017 1.39673 -2.994 3.52831 0.931165 -2.67785 4.379 0.467614 -2.42995 5.23926 0.0967782 -2.08005 6.10794 -0.329299 -1.82737 6.64483 -0.585946 -1.64641 2.31051 2.26793 -3.4826 1.70349 2.8499 -4.02375 1.08672 3.43142 -4.55425 0.516589 4.02829 -5.11878 -0.0728515 4.61035 -5.67892 -0.738479 5.10244 -6.23999 -1.45261 5.55313 -6.77284 2.68857 2.62002 -3.60781 3.37108 2.13296 -3.06287 4.09349 1.68239 -2.53836 4.78803 1.21918 -1.98787 5.53026 0.749461 -1.50989 6.27606 0.332239 -0.990553 6.7847 0.0536402 -0.638993 3.06104 2.95281 -3.71778 3.58954 2.45482 -4.40531 4.20662 1.97583 -5.02963 4.80093 1.49561 -5.67475 5.3952 1.01534 -6.31988 5.99839 0.562692 -6.97659 6.47087 -0.0567282 -7.60355 6.58778 -0.208131 -7.75904 3.37026 3.21232 -3.79417 2.81109 3.99952 -4.05426 2.21626 4.76381 -4.30332 1.68271 5.55571 -4.60035 1.12669 6.33667 -4.88483 0.557818 7.07999 -5.23677 0.0125179 7.85846 -5.54763 -0.137939 8.07715 -5.64795 3.70945 3.50884 -3.8942 3.35459 4.32918 -4.34266 3.01136 5.16067 -4.77949 2.6586 5.9528 -5.27758 2.26812 6.76454 -5.71187 1.82369 7.55934 -6.12511 1.41138 8.37036 -6.54014 1.31032 8.58205 -6.61168 4.11702 3.80356 -4.04274 4.52918 3.81623 -3.13172 4.90654 3.87444 -2.20748 5.33918 3.97524 -1.31157 5.65584 4.19301 -0.388366 5.98417 4.43689 0.524169 6.32479 4.69082 1.37011 4.47998 4.10473 -4.15008 4.04896 4.64767 -4.8708 3.71976 5.23984 -5.60631 3.47391 5.82632 -6.37806 3.16617 6.43472 -7.10959 2.97507 7.05539 -7.87002 2.92863 7.3186 -8.22121 4.92718 4.43654 -4.30678 5.61749 4.05785 -3.69028 6.36894 3.69862 -3.13686 7.10607 3.30114 -2.59038 7.78731 2.89932 -1.97845 8.48444 2.52141 -1.36919 9.19273 2.13588 -0.777843 9.2282 2.11649 -0.748106 5.35735 4.72639 -4.42484 4.91287 5.59365 -4.64911 4.42848 6.42531 -4.9206 3.93906 7.24996 -5.2042 3.42661 8.07671 -5.43631 3.05967 8.97231 -5.68782 2.77672 9.57692 -5.7301 5.75546 4.99179 -4.55009 6.33672 4.32293 -5.01351 6.78502 3.50533 -5.37484 7.15743 2.65097 -5.73731 7.476 1.76149 -6.06493 7.76876 0.881877 -6.43987 8.07368 -0.00424035 -6.78889 8.14993 -0.207938 -6.84783 6.14354 5.26626 -4.68108 6.70204 4.59801 -5.17253 7.26058 3.92952 -5.66359 7.82448 3.2222 -6.08988 8.39697 2.48402 -6.44672 9.0025 1.73732 -6.72198 9.30077 1.37212 -6.85841 6.49361 5.51223 -4.79966 5.94255 6.34401 -4.73275 5.4099 7.18867 -4.67952 4.78083 7.96458 -4.63218 4.17416 8.7539 -4.53768 3.56834 9.54281 -4.43474 2.9046 10.2806 -4.31169 2.87691 10.3102 -4.30733 6.9106 5.76464 -4.96234 6.68292 5.75347 -5.93601 6.40966 5.69385 -6.8961 6.18775 5.51017 -7.85371 5.97999 5.28498 -8.80562 5.78968 5.08977 -9.76774 5.62111 4.97589 -10.432 7.38021 5.98762 -5.12711 6.93762 6.88427 -5.11544 6.47431 7.76994 -5.08492 6.04289 8.6566 -5.25141 5.57003 9.52694 -5.38891 5.12831 10.4235 -5.42205 4.7301 11.2035 -5.46132 7.86605 6.19488 -5.31478 7.67466 6.80039 -4.54231 7.41331 7.3919 -3.77954 7.12126 7.96366 -3.01286 6.90047 8.53975 -2.22586 6.66761 9.12919 -1.45233 6.49285 9.51709 -0.995446 8.26701 6.34758 -5.487 7.85412 6.48007 -6.38809 7.48948 6.56992 -7.31489 7.22155 6.65821 -8.27428 6.93679 6.82374 -9.21848 6.58442 6.89004 -10.152 6.36491 6.92962 -10.7639 8.69914 6.50226 -5.68535 8.25637 7.3719 -5.46696 7.72021 8.1731 -5.20126 7.25036 9.0099 -4.92015 6.82268 9.87134 -4.64631 6.39179 10.7521 -4.44982 6.18478 11.2131 -4.34238 9.16367 6.63317 -5.92696 8.89146 6.41653 -6.86449 8.47659 6.24931 -7.75888 8.08803 6.20241 -8.6791 7.64241 6.14238 -9.57231 7.12648 6.0946 -10.4276 6.88308 6.0193 -10.8069 9.66019 6.77049 -6.17684 9.28311 7.38739 -6.86767 8.8007 7.98315 -7.50981 8.27176 8.56001 -8.13227 7.70167 9.11935 -8.73404 7.23043 9.7524 -9.34819 7.17744 9.82343 -9.41679 10.0926 6.88668 -6.40698 10.6527 6.06855 -6.53744 11.2696 5.28455 -6.60627 11.9751 4.58143 -6.51692 12.578 3.78627 -6.45236 13.1421 3.0668 -6.43355 10.5083 7.00264 -6.63563 11.0217 7.10622 -5.78372 11.5287 7.22979 -4.93067 11.9221 7.36968 -4.02204 12.3276 7.50198 -3.11754 12.7436 7.61992 -2.21586 12.9155 7.68218 -1.83826 10.859 7.09593 -6.86999 11.0557 6.21053 -7.29113 11.2496 5.31794 -7.69817 11.4676 4.41996 -8.08039 11.6977 3.5174 -8.44432 11.8584 2.72466 -8.73467 11.1904 7.18488 -7.09451 11.0445 6.50365 -7.8119 10.9112 5.82837 -8.53732 10.6602 5.16444 -9.24172 10.4936 4.42026 -9.8886 10.2566 3.74517 -10.5872 10.2408 3.70126 -10.6329 11.595 7.29404 -7.36336 11.1156 8.13216 -7.62349 10.6339 8.97014 -7.88009 10.1563 9.81411 -8.1241 9.67339 10.6301 -8.44199 9.3427 11.1935 -8.61574 12.0379 7.38582 -7.62944 11.2704 7.77666 -8.13756 10.4859 8.12349 -8.65157 9.69853 8.46596 -9.16421 8.91184 8.79429 -9.68701 8.67213 8.90352 -9.85841 12.4217 7.4298 -7.88912 11.8512 7.70544 -8.66278 11.1776 8.00518 -9.33833 10.56 8.3318 -10.0539 9.92199 8.61683 -10.7692 9.49683 8.80323 -11.3338 12.8329 7.44853 -8.19682 12.5909 8.41395 -8.29383 12.3392 9.3781 -8.3777 12.0539 10.3326 -8.4648 11.8288 11.301 -8.57169 11.7164 11.8891 -8.62865 13.2567 7.43486 -8.52682 14.1613 7.85562 -8.45784 15.0322 8.3325 -8.5763 15.9136 8.77778 -8.73409 16.851 9.12162 -8.78873 16.9742 9.1639 -8.79207 13.6786 7.41876 -8.85999 14.024 8.35044 -8.74752 14.3449 9.29441 -8.67032 14.6858 10.2331 -8.61969 15.0166 11.175 -8.56066 15.0831 11.3887 -8.54959 14.0598 7.42814 -9.17701 14.8208 7.55464 -8.54069 15.5789 7.77804 -7.92799 16.338 7.99989 -7.31596 17.1203 8.18081 -6.71997 17.5765 8.27895 -6.35799 14.4112 7.42284 -9.52089 14.9719 8.00156 -8.92875 15.5162 8.56139 -8.30398 16.0876 9.16861 -7.75189 16.5395 9.94283 -7.30874 16.9228 10.5596 -6.98462 14.7204 7.41179 -9.82455 14.9717 6.53763 -9.40895 15.2626 5.6495 -9.0532 15.5483 4.72631 -8.79603 15.729 3.77707 -8.53861 15.7846 3.48652 -8.45947 15.098 7.36527 -10.1915 14.4575 7.96841 -10.6669 13.9194 8.6457 -11.1686 13.4087 9.32802 -11.6917 12.9451 10.028 -12.2349 12.7972 10.2508 -12.4085 15.5337 7.31079 -10.6103 14.8526 7.80101 -11.1542 14.2009 8.19597 -11.8017 13.4593 8.51392 -12.3924 12.7366 8.745 -13.0438 12.3755 8.90371 -13.3847 15.8564 7.26979 -10.9468 16.6313 7.51107 -10.3625 17.2927 7.83957 -9.68827 17.9613 8.15882 -9.01667 18.3696 8.35835 -8.60876 16.2386 7.22123 -11.3451 16.2848 8.18056 -11.6236 16.3476 9.1352 -11.9147 16.3914 10.0884 -12.2137 16.39 10.7104 -12.3984 16.5869 7.16365 -11.7213 17.2015 7.9458 -11.8242 17.9217 8.63234 -11.9241 18.6721 9.28537 -12.0258 19.3693 9.97242 -12.2304 19.6015 10.2373 -12.3394 17.0147 7.15504 -12.1277 16.2851 6.59589 -12.5215 15.5596 6.1093 -13.0082 14.8368 5.66283 -13.5357 14.3339 5.3464 -13.901 17.394 7.15093 -12.4998 17.4175 8.15043 -12.5208 17.4978 9.14594 -12.5709 17.6398 10.1353 -12.5407 17.7089 10.6748 -12.5636 17.7814 7.08293 -12.8658 18.5099 7.64746 -12.4776 19.2714 8.16043 -12.0815 20.0136 8.77093 -11.8049 20.5552 9.23462 -11.5981 18.0971 6.96821 -13.2242 18.6351 7.43971 -12.5254 19.2006 7.86376 -11.8181 19.8528 8.26423 -11.1744 20.2604 8.51813 -10.7666 18.3906 6.85327 -13.584 17.6943 7.03194 -14.2792 17.0086 7.29412 -14.9582 16.329 7.53695 -15.6504 16.0843 7.62066 -15.8989 18.6546 6.75462 -13.9624 18.2884 7.46277 -14.566 17.8995 8.07407 -15.2553 17.5697 8.78968 -15.871 17.5168 8.9076 -15.9656 18.9285 6.66285 -14.3658 19.7632 6.36491 -13.9026 20.5909 6.09589 -13.4101 21.3905 5.80425 -12.8852 21.7798 5.66304 -12.6191 19.2061 6.57014 -14.7976 19.6497 5.75935 -14.4156 20.1048 4.95724 -14.029 20.5603 4.14095 -13.6737 20.7297 3.82489 -13.55 19.4834 6.41402 -15.272 20.1511 7.15491 -15.3447 20.8832 7.83482 -15.3862 21.6734 8.44339 -15.3138 21.7649 8.51848 -15.3018 19.73 6.28136 -15.7121 20.6081 6.07809 -15.2788 21.486 5.93069 -14.8232 22.3441 5.79918 -14.4644 19.9961 6.13678 -16.1812 20.8463 5.73281 -15.8436 21.6946 5.30511 -15.5313 22.5746 4.94812 -15.2182 22.5828 4.9447 -15.2152 20.2018 6.00866 -16.5689 20.6538 5.2441 -16.1094 21.1481 4.50205 -15.6566 21.5539 3.83869 -15.2502 20.4118 5.8372 -16.9851 20.9831 5.13234 -16.5646 21.493 4.39466 -16.122 21.987 3.65241 -15.6692 22.0899 3.49495 -15.5725 20.6264 5.6665 -17.4063 21.3287 6.37738 -17.4444 22.0554 7.06387 -17.4683 22.6041 7.53019 -17.512 20.8321 5.47702 -17.8224 20.6196 4.53091 -17.5781 20.4047 3.59275 -17.3067 20.3538 3.35212 -17.2309 21.04 5.28236 -18.242 21.8913 5.78623 -18.0958 22.7758 6.22634 -17.9409 22.9555 6.32658 -17.9129 21.2226 5.0705 -18.6532 22.1457 5.32189 -18.3622 23.0595 5.65826 -18.1347 23.1849 5.69851 -18.1057 21.4046 4.89393 -19.1104 20.6776 5.36987 -19.6053 20.0575 5.96056 -20.0331 21.5453 4.7496 -19.4922 22.3893 5.23024 -19.2541 23.3215 5.59136 -19.2788 23.4707 5.64593 -19.2815 21.69 4.60764 -19.9 22.2526 3.84003 -19.5931 22.8452 3.07866 -19.33 22.8951 3.01197 -19.3108 21.7805 4.48703 -20.2852 21.1745 3.71039 -20.4572 20.6128 2.94106 -20.6333 21.8877 4.36273 -20.7356 21.1229 4.92201 -21.0554 20.6628 5.27289 -21.2342 22.0007 4.23887 -21.1697 21.0578 4.03204 -21.4306 20.4523 3.85845 -21.5869 22.0768 4.10917 -21.6412 21.8928 3.12931 -21.5635 21.8414 2.83679 -21.5384 22.1648 3.97214 -22.1738 21.5472 3.20663 -21.9934 21.3431 2.94385 -21.9227 22.2447 3.86436 -22.6345 22.6416 4.68204 -23.0515 22.7141 4.83041 -23.1274 22.329 3.75 -23.0468 22.6602 4.43651 -23.2852 22.4093 3.63376 -23.4858 22.3832 4.34696 -23.9195 22.4911 3.48334 -23.9763 21.9675 3.5738 -24.1209 22.5197 3.30221 -24.4576 22.8688 3.53658 -24.5506 22.5524 3.13553 -24.9592 22.475 2.85221 -24.8752 22.5616 3.00557 -25.4072 22.5577 2.86478 -25.3758 0 0 -3 -0.379276 -0.109182 -3.2134 -0.81875 -0.23711 -3.4713 -1.2586 -0.356544 -3.74323 -1.66643 -0.467227 -3.99522 -2.04317 -0.586273 -4.24796 -2.36293 -0.741057 -4.51201 -2.69597 -0.864491 -4.80811 -3.02222 -0.978484 -5.09276 -3.36347 -1.15469 -5.42221 -3.73241 -1.34487 -5.77701 -4.04896 -1.50448 -6.11026 -4.33532 -1.65542 -6.44191 -4.5942 -1.79557 -6.7489 -4.96976 -1.98733 -7.12143 -5.34728 -2.18342 -7.53457 -5.60022 -2.30937 -7.82905 -5.88854 -2.46935 -8.18566 -6.1769 -2.63186 -8.54129 -6.52603 -2.81988 -8.99728 -6.78125 -2.9574 -9.33089 -7.05741 -3.10776 -9.68937 -7.34398 -3.22603 -10.0702 -7.62642 -3.32484 -10.4549 -7.96456 -3.4078 -10.8059 -8.36044 -3.48799 -11.2109 -8.71807 -3.5759 -11.553 -9.06467 -3.69234 -11.923 -9.37932 -3.78815 -12.2638 -9.64862 -3.86016 -12.6094 -9.9481 -3.93444 -13.0177 -10.2313 -3.99339 -13.4828 -10.4484 -4.02474 -13.8954 -10.6796 -4.07264 -14.3475 -10.893 -4.13219 -14.7263 -11.0744 -4.17057 -15.1695 -11.2589 -4.21429 -15.6373 -11.4489 -4.16366 -16.141 -11.6482 -4.12267 -16.6319 -11.8675 -4.12507 -17.2029 -12.0471 -4.13212 -17.7132 -12.2497 -4.11337 -18.2753 -12.4122 -4.08576 -18.7735 -12.5823 -4.06196 -19.3069 -12.7169 -4.03942 -19.7355 -12.854 -4.04582 -20.2281 -12.9441 -4.03573 -20.7145 -13.0503 -4.02397 -21.2386 -13.1305 -4.01006 -21.6789 -13.2058 -3.92534 -22.2273 -13.2721 -3.84809 -22.7056 -13.3156 -3.75577 -23.1995 -13.3709 -3.6799 -23.6306 -13.418 -3.62316 -24.0835 -13.4659 -3.56947 -24.5881 -13.5291 -3.52427 -25.0931 -13.5801 -3.485 -25.5108 -13.6351 -3.43816 -25.989 -13.694 -3.42302 -26.4697 -13.7994 -3.3816 -26.8831 -13.9289 -3.33188 -27.3881 -14.0448 -3.28898 -27.836 -14.192 -3.25065 -28.2733 -14.3536 -3.2488 -28.7736 -14.4921 -3.25566 -29.1415 -0.379276 -0.109182 -3.2134 0.0327121 0.352986 -3.99868 0.423702 0.827582 -4.78728 0.762017 1.24198 -5.45765 -0.81875 -0.23711 -3.4713 -1.41115 -0.529049 -2.72041 -2.00082 -0.768696 -1.94914 -2.59279 -0.989561 -1.17403 -2.83675 -1.07749 -0.855563 -1.2586 -0.356544 -3.74323 -1.83852 -0.0552172 -2.98633 -2.32853 0.288964 -2.18544 -2.68651 0.580402 -1.48258 -1.66643 -0.467227 -3.99522 -2.01674 -0.160359 -3.11028 -2.38546 0.182232 -2.24617 -2.599 0.376589 -1.76257 -2.04317 -0.586273 -4.24796 -1.58689 -0.776394 -5.11725 -1.07478 -0.934102 -5.96157 -0.585655 -1.03411 -6.75916 -2.36293 -0.741057 -4.51201 -3.00696 -0.0841775 -4.9041 -3.61575 0.606965 -5.29359 -4.19237 1.32741 -5.6789 -4.25957 1.41604 -5.72868 -2.69597 -0.864491 -4.80811 -3.17691 -0.777837 -3.93565 -3.69512 -0.698422 -3.08409 -4.01013 -0.700397 -2.61905 -3.02222 -0.978484 -5.09276 -3.19166 -0.133262 -5.5996 -3.35928 0.726426 -6.08214 -3.37564 0.805493 -6.1278 -3.36347 -1.15469 -5.42221 -3.15881 -2.0872 -5.12464 -2.95975 -3.02266 -4.83261 -2.84235 -3.51163 -4.6691 -3.73241 -1.34487 -5.77701 -3.4131 -2.28833 -5.86611 -3.11952 -3.23668 -5.98626 -2.98622 -3.69123 -6.01016 -4.04896 -1.50448 -6.11026 -3.25821 -2.07883 -6.32202 -2.56367 -2.71794 -6.61726 -4.33532 -1.65542 -6.44191 -5.12391 -1.04055 -6.43467 -5.8057 -0.443272 -6.43732 -4.5942 -1.79557 -6.7489 -4.04699 -2.37032 -7.35736 -3.65849 -2.80439 -7.69644 -4.96976 -1.98733 -7.12143 -4.77845 -1.15682 -7.64455 -4.61357 -0.566249 -8.08493 -5.34728 -2.18342 -7.53457 -5.18312 -1.19699 -7.53729 -5.06212 -0.289779 -7.54127 -5.60022 -2.30937 -7.82905 -4.90066 -2.91003 -8.21612 -4.65233 -3.09557 -8.34017 -5.88854 -2.46935 -8.18566 -5.47188 -1.82143 -8.8233 -5.31374 -1.61936 -9.03149 -6.1769 -2.63186 -8.54129 -6.21707 -1.73715 -8.69643 -6.52603 -2.81988 -8.99728 -6.69063 -3.58578 -8.77586 -6.78125 -2.9574 -9.33089 -6.44608 -3.48436 -9.54418 -7.05741 -3.10776 -9.68937 -7.42695 -2.63245 -9.86574 -7.34398 -3.22603 -10.0702 -7.10101 -3.05523 -10.3018 -7.62642 -3.32484 -10.4549 -7.74829 -3.19217 -10.3772 -7.96456 -3.4078 -10.8059 -7.96521 -3.40848 -10.8056 0 0 -3 0.140556 -0.493084 -3.07786 0.270956 -0.98097 -3.16134 0.358301 -1.44901 -3.2908 0.447409 -1.92532 -3.42259 0.552073 -2.46223 -3.55597 0.603907 -2.93559 -3.6744 0.697799 -3.47532 -3.78983 0.769014 -3.84596 -3.8694 0.867294 -4.38405 -4.00211 0.995226 -4.88456 -4.1237 1.12885 -5.4015 -4.25158 1.16777 -5.87223 -4.39291 1.22954 -6.45271 -4.56294 1.29393 -6.95466 -4.74718 1.36994 -7.37556 -4.9723 1.42903 -7.83947 -5.19828 1.48596 -8.31578 -5.45281 1.47972 -8.74361 -5.71603 1.46616 -9.1718 -5.97141 1.45058 -9.62852 -6.2425 1.44704 -10.0439 -6.51493 1.44002 -10.3876 -6.77648 1.41221 -10.8262 -7.16877 1.3905 -11.1504 -7.45697 1.36296 -11.427 -7.71302 1.32403 -11.7953 -8.03604 1.30685 -12.2032 -8.42505 1.30376 -12.5606 -8.76563 1.30432 -12.9134 -9.09868 1.28144 -13.3121 -9.46553 1.27265 -13.7069 -9.83347 1.32792 -14.1426 -10.3018 1.35865 -14.4319 -10.6342 1.30994 -14.8101 -11.1687 1.27989 -15.102 -11.557 1.19159 -15.3789 -11.9605 1.09069 -15.6563 -12.366 1.00597 -15.8735 -12.7101 0.922998 -16.1056 -13.2083 0.140556 -0.493084 -3.07786 0.691516 -0.177522 -2.72293 0.270956 -0.98097 -3.16134 0.844046 -0.924747 -2.94963 0.358301 -1.44901 -3.2908 0.306191 -1.4074 -3.7199 0.447409 -1.92532 -3.42259 0.143296 -2.02859 -3.46561 0.552073 -2.46223 -3.55597 0.48458 -2.46028 -3.74041 0.603907 -2.93559 -3.6744 0.658904 -2.94185 -3.64566 
</DataArray>
</Points>
<Lines>
<DataArray type="Int32" Name="connectivity" NumberOfComponents="1" format="ascii" >
0 1 2 3 4 5 6 7 8 9 10 11 12 13 14 15 16 17 18 19 20 21 22 23 24 25 26 27 28 29 30 31 32 33 34 35 36 37 38 39 40 41 42 43 44 45 46 47 48 49 50 51 52 53 54 55 56 57 58 59 60 61 62 63 64 65 66 67 68 69 70 71 72 73 74 75 76 77 78 79 80 81 82 83 84 85 86 87 88 89 90 91 92 93 94 95 96 97 98 99 100 101 102 103 104 105 106 107 108 109 110 111 112 113 114 115 116 117 118 119 120 121 122 123 124 125 126 127 128 129 130 131 132 133 134 135 136 137 138 139 140 141 142 143 144 145 146 147 148 149 150 151 152 153 154 155 156 157 158 159 160 161 162 163 164 165 166 167 168 169 170 171 172 173 174 175 176 177 178 179 180 181 182 183 184 185 186 187 188 189 190 191 192 193 194 195 196 197 198 199 200 201 202 203 204 205 206 207 208 209 210 211 212 213 214 215 216 217 218 219 220 221 222 223 224 225 226 227 228 229 230 231 232 233 234 235 236 237 238 239 240 241 242 243 244 245 246 247 248 249 250 251 252 253 254 255 256 257 258 259 260 261 262 263 264 265 266 267 268 269 270 271 272 273 274 275 276 277 278 279 280 281 282 283 284 285 286 287 288 289 290 291 292 293 294 295 296 297 298 299 300 301 302 303 304 305 306 307 308 309 310 311 312 313 314 315 316 317 318 319 320 321 322 323 324 325 326 327 328 329 330 331 332 333 334 335 336 337 338 339 340 341 342 343 344 345 346 347 348 349 350 351 352 353 354 355 356 357 358 359 360 361 362 363 364 365 366 367 368 369 370 371 372 373 374 375 376 377 378 379 380 381 382 383 384 385 386 387 388 389 390 391 392 393 394 395 396 397 398 399 400 401 402 403 404 405 406 407 408 409 410 411 412 413 414 415 416 417 418 419 420 421 422 423 424 425 426 427 428 429 430 431 432 433 434 435 436 437 438 439 440 441 442 443 444 445 446 447 448 449 450 451 452 453 454 455 456 457 458 459 460 461 462 463 464 465 466 467 468 469 470 471 472 473 474 475 476 477 478 479 480 481 482 483 484 485 486 487 488 489 490 491 492 493 494 495 496 497 498 499 500 501 502 503 504 505 506 507 508 509 510 511 512 513 514 515 516 517 518 519 520 521 522 523 524 525 526 527 528 529 530 531 532 533 534 535 536 537 538 539 540 541 542 543 544 545 546 547 548 549 550 551 552 553 554 555 556 557 558 559 560 561 562 563 564 565 566 567 568 569 570 571 572 573 574 575 576 577 578 579 580 581 582 583 584 585 586 587 588 589 590 591 592 593 594 595 596 597 598 599 600 601 602 603 604 605 606 607 608 609 610 611 612 613 614 615 616 617 618 619 620 621 622 623 624 625 626 627 628 629 630 631 632 633 634 635 636 637 638 639 640 641 642 643 644 645 646 647 648 649 650 651 652 653 654 655 656 657 658 659 660 661 662 663 664 665 666 667 668 669 670 671 672 673 674 675 676 677 678 679 680 681 682 683 684 685 686 687 688 689 690 691 692 693 694 695 696 697 698 699 700 701 702 703 704 705 706 707 708 709 710 711 712 713 714 715 716 717 
</DataArray>
<DataArray type="Int32" Name="offsets" NumberOfComponents="1" format="ascii" >
111 119 126 134 142 150 157 164 171 179 187 195 202 209 217 224 232 239 247 254 261 268 275 282 289 296 302 309 315 322 328 334 340 346 352 358 364 370 376 382 388 393 398 404 409 414 419 424 429 434 439 444 449 453 458 462 467 471 475 479 483 486 490 494 497 500 503 506 509 512 514 516 518 520 522 524 589 593 598 602 606 610 615 619 623 627 631 634 637 640 643 646 649 652 654 656 658 660 662 664 666 706 708 710 712 714 716 718 
</DataArray>

</Lines>
</Piece>
</PolyData>
</VTKFile>
