<?xml version="1.0"?><VTKFile type="PolyData" version="0.1" byte_order="LittleEndian">
<PolyData>
<Piece NumberOfLines="37" NumberOfPoints="900">
<PointData Scalars=" PointData">
<DataArray type="Float32" Name="time" NumberOfComponents="1" format="ascii" >
0 0.140992 0.28228 0.423865 0.565748 0.70793 0.850412 0.993197 1.13628 1.27968 1.42337 1.56738 1.71169 1.85631 2.00125 2.14649 2.29205 2.43793 2.58412 2.73062 2.87745 3.0246 3.17207 3.31986 3.46798 3.61642 3.7652 3.9143 4.06373 4.21349 4.36359 4.51402 4.66479 4.81589 4.96734 5.11913 5.27126 5.42373 5.57655 5.72972 5.88323 6.0371 6.19131 6.34588 6.50081 6.65609 6.81174 6.96774 7.1241 7.28083 7.43792 7.59538 7.75321 7.91141 8.06998 8.22892 8.38824 8.54794 8.70802 8.86848 9.02932 9.19054 9.35216 9.51416 9.67655 9.83933 10.0025 10.1661 10.3301 10.4944 10.6592 10.8244 10.99 11.1559 11.3223 11.4892 11.6564 11.824 11.9921 12.1606 12.3295 12.4988 12.6685 12.8387 13.0093 13.1804 13.3519 13.5238 13.6961 13.8689 14.0422 14.2159 14.39 14.5646 14.7396 14.9151 15.0911 15.2675 15.4444 15.6217 15.7995 15.9778 16.1566 16.3358 16.5155 16.6957 16.8764 17.0575 17.2392 17.4213 17.6039 17.7871 17.9707 18.1548 18.3394 18.5246 18.7102 18.8964 19.0831 19.2702 19.458 19.6462 19.835 20.0243 20.2141 20.4045 20.5954 20.7868 20.9788 21 6.59394 6.92832 7.26481 7.60343 7.94422 8.2872 8.6324 8.97985 9.32958 9.68162 10.036 10.3927 10.7519 11.1135 11.4775 11.8441 12.2132 12.5848 12.9591 13.336 13.7156 14.0979 14.483 14.8709 15.2616 15.6552 16.0518 16.4513 16.8538 17.2594 17.668 18.0799 18.4949 18.9132 19.3348 19.7598 20.1882 20.62 21 7.21809 7.55247 7.88896 8.22759 8.56838 8.91136 9.25656 9.60401 9.95374 10.3058 10.6601 11.0169 11.376 11.7376 12.1017 12.4682 12.8373 13.209 13.5833 13.9602 14.3398 14.7221 15.1072 15.495 15.8858 16.2794 16.6759 17.0754 17.4779 17.8835 18.2922 18.704 19.1191 19.5374 19.959 20.384 20.8123 21 7.84808 8.18246 8.51895 8.85758 9.19837 9.54135 9.88655 10.234 10.5837 10.9358 11.2901 11.6469 12.006 12.3676 12.7317 13.0982 13.4673 13.839 14.2132 14.5902 14.9698 15.3521 15.7372 16.125 16.5158 16.9094 17.3059 17.7054 18.1079 18.5135 18.9222 19.334 19.7491 20.1674 20.589 21 8.48402 8.8184 9.15489 9.49351 9.8343 10.1773 10.5225 10.8699 11.2197 11.5717 11.9261 12.2828 12.642 13.0036 13.3676 13.7342 14.1032 14.4749 14.8492 15.2261 15.6057 15.988 16.3731 16.761 17.1517 17.5453 17.9418 18.3413 18.7439 19.1494 19.5581 19.97 20.385 20.8033 21 9.12601 9.46039 9.79688 10.1355 10.4763 10.8193 11.1645 11.5119 11.8617 12.2137 12.5681 12.9248 13.284 13.6455 14.0096 14.3761 14.7452 15.1169 15.4912 15.8681 16.2477 16.63 17.0151 17.403 17.7937 18.1873 18.5838 18.9833 19.3858 19.7914 20.2001 20.6119 21 9.77417 10.1086 10.445 10.7837 11.1245 11.4674 11.8126 12.1601 12.5098 12.8619 13.2162 13.573 13.9321 14.2937 14.6578 15.0243 15.3934 15.7651 16.1393 16.5162 16.8958 17.2782 17.6632 18.0511 18.4418 18.8355 19.232 19.6315 20.034 20.4396 20.8483 21 10.4286 10.763 11.0995 11.4381 11.7789 12.1219 12.4671 12.8145 13.1643 13.5163 13.8707 14.2274 14.5866 14.9482 15.3122 15.6788 16.0479 16.4195 16.7938 17.1707 17.5503 17.9326 18.3177 18.7056 19.0963 19.4899 19.8864 20.2859 20.6885 21 11.0895 11.4239 11.7604 12.099 12.4398 12.7828 13.128 13.4754 13.8251 14.1772 14.5316 14.8883 15.2474 15.609 15.9731 16.3396 16.7087 17.0804 17.4547 17.8316 18.2112 18.5935 18.9786 19.3665 19.7572 20.1508 20.5473 20.9468 21 11.7569 12.0913 12.4278 12.7664 13.1072 13.4502 13.7954 14.1428 14.4926 14.8446 15.199 15.5557 15.9149 16.2764 16.6405 17.0071 17.3761 17.7478 18.1221 18.499 18.8786 19.2609 19.646 20.0339 20.4246 20.8182 21 12.431 12.7654 13.1019 13.4405 13.7813 14.1243 14.4695 14.8169 15.1666 15.5187 15.8731 16.2298 16.589 16.9505 17.3146 17.6811 18.0502 18.4219 18.7962 19.1731 19.5527 19.935 20.3201 20.708 21 13.1119 13.4463 13.7828 14.1214 14.4622 14.8052 15.1504 15.4978 15.8475 16.1996 16.554 16.9107 17.2699 17.6314 17.9955 18.362 18.7311 19.1028 19.4771 19.854 20.2336 20.6159 21 13.7998 14.1341 14.4706 14.8092 15.15 15.493 15.8382 16.1857 16.5354 16.8874 17.2418 17.5986 17.9577 18.3193 18.6833 19.0499 19.419 19.7906 20.1649 20.5418 20.9214 21 14.4947 14.8291 15.1656 15.5042 15.845 16.188 16.5332 16.8806 17.2303 17.5824 17.9367 18.2935 18.6526 19.0142 19.3783 19.7448 20.1139 20.4856 20.8599 21 15.1969 15.5312 15.8677 16.2064 16.5472 16.8901 17.2353 17.5828 17.9325 18.2845 18.6389 18.9957 19.3548 19.7164 20.0805 20.447 20.8161 21 15.9064 16.2408 16.5773 16.9159 17.2567 17.5997 17.9449 18.2924 18.6421 18.9941 19.3485 19.7052 20.0644 20.426 20.79 21 16.6236 16.9579 17.2944 17.633 17.9738 18.3168 18.662 19.0095 19.3592 19.7112 20.0656 20.4224 20.7815 21 17.3484 17.6828 18.0193 18.3579 18.6987 19.0416 19.3868 19.7343 20.084 20.4361 20.7904 21 18.0811 18.4155 18.752 19.0906 19.4314 19.7744 20.1196 20.467 20.8167 21 18.8219 19.1562 19.4927 19.8313 20.1721 20.5151 20.8603 21 19.5708 19.9052 20.2417 20.5803 20.9211 21 20.3282 20.6626 20.9991 21 7 7.14099 7.28228 7.42387 7.56575 7.70793 7.85041 7.9932 8.13628 8.27968 8.42337 8.56738 8.71169 8.85631 9.00125 9.14649 9.29205 9.43793 9.58412 9.73062 9.87745 10.0246 10.1721 10.3199 10.468 10.6164 10.7652 10.9143 11.0637 11.2135 11.3636 11.514 11.6648 11.8159 11.9673 12.1191 12.2713 12.4237 12.5765 12.7297 12.8832 13.0371 13.1913 13.3459 13.5008 13.6561 13.8117 13.9677 14.1241 14.2808 14.4379 14.5954 14.7532 14.9114 15.07 15.2289 15.3882 15.5479 15.708 15.8685 16.0293 16.1905 16.3522 16.5142 16.6765 16.8393 17.0025 17.1661 17.3301 17.4944 17.6592 17.8244 17.99 18.1559 18.3223 18.4892 18.6564 18.824 18.9921 19.1606 19.3295 19.4988 19.6685 19.8387 20.0093 20.1804 20.3519 20.5238 20.6961 20.8689 21 13.5939 13.9283 14.2648 14.6034 14.9442 15.2872 15.6324 15.9799 16.3296 16.6816 17.036 17.3927 17.7519 18.1135 18.4775 18.8441 19.2132 19.5848 19.9591 20.336 20.7156 21 14.2181 14.5525 14.889 15.2276 15.5684 15.9114 16.2566 16.604 16.9537 17.3058 17.6601 18.0169 18.376 18.7376 19.1017 19.4682 19.8373 20.209 20.5833 20.9602 21 14.8481 15.1825 15.519 15.8576 16.1984 16.5413 16.8865 17.234 17.5837 17.9358 18.2901 18.6469 19.006 19.3676 19.7317 20.0982 20.4673 20.839 21 15.484 15.8184 16.1549 16.4935 16.8343 17.1773 17.5225 17.8699 18.2197 18.5717 18.9261 19.2828 19.642 20.0036 20.3676 20.7342 21 16.126 16.4604 16.7969 17.1355 17.4763 17.8193 18.1645 18.5119 18.8617 19.2137 19.5681 19.9248 20.284 20.6455 21 16.7742 17.1086 17.445 17.7837 18.1245 18.4674 18.8126 19.1601 19.5098 19.8619 20.2162 20.573 20.9321 21 17.4286 17.763 18.0995 18.4381 18.7789 19.1219 19.4671 19.8145 20.1643 20.5163 20.8707 21 18.0895 18.4239 18.7604 19.099 19.4398 19.7828 20.128 20.4754 20.8251 21 18.7569 19.0913 19.4278 19.7664 20.1072 20.4502 20.7954 21 19.431 19.7654 20.1019 20.4405 20.7813 21 20.1119 20.4463 20.7828 21 20.7998 21 14 14.141 14.2823 14.4239 14.5657 14.7079 14.8504 14.9932 15.1363 15.2797 15.4234 15.5674 15.7117 15.8563 16.0012 16.1465 16.2921 16.4379 16.5841 16.7306 16.8775 17.0246 17.1721 17.3199 17.468 17.6164 17.7652 17.9143 18.0637 18.2135 18.3636 18.514 18.6648 18.8159 18.9673 19.1191 19.2713 19.4237 19.5765 19.7297 19.8832 20.0371 20.1913 20.3459 20.5008 20.6561 20.8117 20.9677 21 20.5939 20.9283 21 
</DataArray>

</PointData>
<CellData Scalars=" CellData">
<DataArray type="Float32" Name="radius" NumberOfComponents="1" format="ascii" >
0.13 0.05 0.05 0.05 0.05 0.05 0.05 0.05 0.05 0.05 0.05 0.05 0.05 0.05 0.05 0.05 0.05 0.05 0.05 0.05 0.05 0.05 0.13 0.05 0.05 0.05 0.05 0.05 0.05 0.05 0.05 0.05 0.05 0.05 0.05 0.13 0.05 
</DataArray>
<DataArray type="Float32" Name="subType" NumberOfComponents="1" format="ascii" >
1 2 2 2 2 2 2 2 2 2 2 2 2 2 2 2 2 2 2 2 2 2 4 2 2 2 2 2 2 2 2 2 2 2 2 4 2 
</DataArray>
<DataArray type="Float32" Name="creationTime" NumberOfComponents="1" format="ascii" >
0 6.59394 7.21809 7.84808 8.48402 9.12601 9.77417 10.4286 11.0895 11.7569 12.431 13.1119 13.7998 14.4947 15.1969 15.9064 16.6236 17.3484 18.0811 18.8219 19.5708 20.3282 7 13.5939 14.2181 14.8481 15.484 16.126 16.7742 17.4286 18.0895 18.7569 19.431 20.1119 20.7998 14 20.5939 
</DataArray>

</CellData>
<Points>
<DataArray type="Float32" Name="Coordinates" NumberOfComponents="3" format="ascii" >
0 0 -1.2 0.372356 0.221764 -1.44934 0.736594 0.452865 -1.70217 1.10361 0.674176 -1.9597 1.46118 0.90565 -2.22154 1.78452 1.16765 -2.49869 2.09955 1.43245 -2.78265 2.41298 1.69557 -3.06994 2.68006 1.96481 -3.39579 2.91448 2.17664 -3.78331 3.12607 2.37242 -4.19185 3.28576 2.584 -4.61579 3.43412 2.7922 -5.04549 3.57292 3.01077 -5.47323 3.71495 3.1876 -5.91883 3.85464 3.34628 -6.37194 4.02364 3.52923 -6.80549 4.24071 3.7133 -7.21659 4.44064 3.93145 -7.61962 4.59857 4.13954 -8.04595 4.75904 4.34638 -8.47194 4.90871 4.51344 -8.91881 5.06189 4.68087 -9.36435 5.21307 4.84765 -9.81081 5.32527 5.04207 -10.2576 5.42764 5.22664 -10.7109 5.46365 5.39061 -11.1818 5.51121 5.54932 -11.6536 5.55188 5.70652 -12.1265 5.61401 5.87287 -12.5939 5.66154 6.02934 -13.0664 5.70348 6.15382 -13.5488 5.75051 6.27705 -14.0311 5.80211 6.36354 -14.5209 5.86889 6.43083 -15.0118 5.93037 6.48387 -15.5052 5.9841 6.53891 -15.9992 6.00519 6.53756 -16.4988 5.97859 6.50142 -16.9967 5.9918 6.43909 -17.4927 6.02202 6.34853 -17.9835 6.0529 6.26518 -18.4755 6.08065 6.18345 -18.968 6.13287 6.08787 -19.456 6.17818 6.01856 -19.9491 6.22695 5.94774 -20.4416 6.22931 5.92044 -20.9409 6.23225 5.89333 -21.4401 6.25719 5.88452 -21.9394 6.25663 5.87761 -22.4394 6.23918 5.84278 -22.9379 6.25451 5.81628 -23.4369 6.24641 5.82555 -23.9368 6.17086 5.84489 -24.4307 6.09006 5.90019 -24.921 5.9607 5.96927 -25.399 5.82423 6.03824 -25.875 5.73407 6.15454 -26.3529 5.64777 6.2912 -26.8261 5.57313 6.39157 -27.3102 5.51799 6.49211 -27.7968 5.45428 6.5971 -28.2815 5.3608 6.66995 -28.7673 5.27258 6.75605 -29.2518 5.17197 6.85487 -29.7315 5.0751 6.94265 -30.2141 5.03774 7.06454 -30.6976 5.01585 7.18377 -31.1827 4.98538 7.30823 -31.666 4.94937 7.39829 -32.1565 4.88556 7.45085 -32.6496 4.80735 7.51298 -33.1395 4.74682 7.56564 -33.6331 4.72973 7.63338 -34.1282 4.70937 7.68839 -34.6247 4.69721 7.73717 -35.1222 4.6728 7.79302 -35.6184 4.62901 7.81697 -36.1159 4.59953 7.84853 -36.6141 4.59584 7.87512 -37.1134 4.53963 7.88067 -37.6102 4.47514 7.84673 -38.1048 4.39626 7.81438 -38.5975 4.31741 7.78204 -39.0902 4.26166 7.72434 -39.5837 4.22629 7.69696 -40.0817 4.20781 7.63172 -40.5771 4.16694 7.57665 -41.0723 4.09295 7.51669 -41.5632 3.98509 7.46999 -42.0492 3.85547 7.44082 -42.5312 3.78686 7.42457 -43.0262 3.72495 7.4232 -43.5224 3.68436 7.4276 -44.0207 3.64549 7.42962 -44.5192 3.60435 7.43149 -45.0175 3.56411 7.42734 -45.5158 3.55371 7.43291 -46.0157 3.54035 7.4409 -46.5155 3.54783 7.48721 -47.0132 3.57294 7.51222 -47.512 3.59972 7.53607 -48.0107 3.60901 7.55911 -48.5101 3.58916 7.59234 -49.0086 3.58807 7.60993 -49.5083 3.57068 7.62605 -50.0077 3.55385 7.64379 -50.5071 3.51741 7.6607 -51.0055 3.48263 7.65777 -51.5043 3.51281 7.65449 -52.0034 3.48726 7.68516 -52.5018 3.48814 7.68582 -53.0018 3.48092 7.6837 -53.5017 3.46693 7.68432 -54.0015 3.45219 7.68537 -54.5013 3.45039 7.68592 -55.0013 3.41945 7.74354 -55.497 3.38146 7.78815 -55.9935 3.35395 7.79626 -56.4927 3.34472 7.77885 -56.9923 3.30884 7.78706 -57.491 3.28131 7.80651 -57.9898 3.26026 7.77377 -58.4883 3.2623 7.77457 -58.9883 3.27518 7.77889 -59.4881 3.27718 7.77942 -59.9881 3.24346 7.76003 -60.4866 3.21203 7.74281 -60.9853 3.16432 7.72483 -61.4827 3.16004 7.72349 -61.5376 1.46118 0.90565 -2.22154 1.80085 0.978824 -1.862 2.13757 1.05317 -1.49993 2.4723 1.105 -1.13214 2.80247 1.16094 -0.760846 3.11714 1.26159 -0.385538 3.4327 1.36021 -0.0104478 3.76335 1.44027 0.355973 4.09 1.5245 0.725025 4.42336 1.65796 1.07296 4.79645 1.81585 1.36601 5.16445 1.96287 1.6709 5.53038 2.10934 1.97854 5.88663 2.24139 2.30358 6.23567 2.37604 2.6353 6.57885 2.51939 2.96949 6.92842 2.68131 3.28821 7.2847 2.82764 3.60704 7.63726 2.99582 3.91915 7.98991 3.16416 4.23108 8.34211 3.33445 4.54246 8.69332 3.51399 4.84974 9.02305 3.69996 5.17638 9.34813 3.88322 5.50915 9.67641 4.07124 5.83607 10.0031 4.25919 6.16462 10.3452 4.42184 6.49096 10.6623 4.62146 6.82201 10.9912 4.8005 7.15337 11.3089 4.93436 7.5155 11.6191 5.02212 7.89771 11.9266 5.07994 8.2877 12.2236 5.13059 8.68675 12.5274 5.18005 9.0808 12.8252 5.22688 9.47969 13.116 5.25232 9.88561 13.4099 5.31401 10.2854 13.7425 5.36269 10.6555 14.0346 5.39912 10.9779 2.68006 1.96481 -3.39579 2.59014 2.44058 -3.27105 2.49904 2.91768 -3.15241 2.40805 3.39476 -3.03361 2.33081 3.87505 -2.91805 2.24604 4.34186 -2.76025 2.15098 4.80742 -2.60463 2.1281 5.29407 -2.49216 2.09548 5.77836 -2.37215 2.05247 6.26232 -2.25412 2.03745 6.75213 -2.15482 2.03466 7.23922 -2.04195 2.0494 7.73062 -1.95081 2.06336 8.21863 -1.84286 2.08223 8.70518 -1.72923 1.99676 9.18905 -1.63669 1.9303 9.67899 -1.56223 1.85967 10.1681 -1.48601 1.79129 10.6518 -1.37964 1.74671 11.1373 -1.26869 1.69395 11.6199 -1.1489 1.63091 12.0941 -1.00356 1.53976 12.5612 -0.850107 1.46896 13.0206 -0.665871 1.39257 13.4776 -0.478056 1.29841 13.9264 -0.278692 1.18738 14.3548 -0.0460988 1.07286 14.7622 0.220238 0.953949 15.2049 0.419935 0.836791 15.6614 0.586968 0.720674 16.1151 0.762113 0.591911 16.5627 0.943864 0.465964 17.0145 1.11703 0.337635 17.47 1.27843 0.20382 17.9278 1.42852 0.0689057 18.3816 1.58937 -0.094842 18.832 1.73202 -0.168149 19.0248 1.80173 3.43412 2.7922 -5.04549 3.63847 3.18215 -4.80847 3.81694 3.58941 -4.57979 3.99567 3.99658 -4.35118 4.11655 4.45155 -4.18267 4.24243 4.89786 -3.9957 4.45909 5.28357 -3.76271 4.6731 5.67816 -3.54248 4.85238 6.10692 -3.35803 5.01628 6.55062 -3.19595 5.15424 7.01337 -3.06623 5.2923 7.47627 -2.93713 5.48839 7.92369 -2.83053 5.68453 8.37108 -2.72393 5.89141 8.81173 -2.60976 6.10761 9.24781 -2.49533 6.26175 9.70029 -2.34871 6.40197 10.1494 -2.17955 6.55739 10.6045 -2.04256 6.70757 11.0551 -1.88643 6.87924 11.4922 -1.71475 7.01976 11.9332 -1.52566 7.2005 12.3704 -1.36363 7.42661 12.7901 -1.21302 7.65315 13.2116 -1.06795 7.87894 13.6324 -0.919909 8.1276 14.0254 -0.736191 8.35118 14.4342 -0.554885 8.5855 14.8514 -0.409704 8.80431 15.2764 -0.263084 9.02288 15.6951 -0.0992303 9.22991 16.0998 0.109162 9.45867 16.4802 0.339166 9.64107 16.8666 0.598834 9.82379 17.2527 0.858779 9.98871 17.6374 1.10112 4.02364 3.52923 -6.80549 4.21404 3.90833 -6.54087 4.36023 4.2889 -6.25139 4.53731 4.67173 -5.9829 4.70323 5.05835 -5.71273 4.86608 5.4433 -5.43833 5.03667 5.83939 -5.18533 5.23876 6.24643 -4.97682 5.43338 6.66234 -4.77897 5.62922 7.07933 -4.58464 5.78348 7.50686 -4.37624 5.94968 7.93808 -4.18539 6.11185 8.37203 -3.99727 6.25161 8.81588 -3.81433 6.35819 9.27796 -3.65584 6.49614 9.72898 -3.48988 6.63266 10.1582 -3.27274 6.78976 10.5746 -3.04489 6.98434 10.9738 -2.81519 7.14797 11.3985 -2.60807 7.31144 11.822 -2.39853 7.46465 12.2307 -2.15468 7.61828 12.6297 -1.89544 7.76921 13.0334 -1.64191 7.93191 13.4309 -1.38597 8.12934 13.8078 -1.12338 8.31132 14.1673 -0.827264 8.49292 14.5273 -0.531687 8.67826 14.8839 -0.234145 8.84281 15.284 0.0165124 8.98901 15.6905 0.26834 9.14558 16.088 0.528046 9.2961 16.4916 0.781904 9.45517 16.8869 1.04345 9.53182 17.0741 1.16064 4.75904 4.34638 -8.47194 4.87169 4.7865 -8.26311 4.98479 5.21238 -8.02683 5.10747 5.64134 -7.80112 5.2318 6.06743 -7.57092 5.33834 6.49499 -7.33462 5.4335 6.94524 -7.13912 5.52906 7.39556 -6.94397 5.65452 7.83665 -6.74474 5.76023 8.27967 -6.53844 5.86025 8.72615 -6.3368 5.96624 9.17525 -6.14427 6.08115 9.62075 -5.94849 6.19465 10.0628 -5.74424 6.31021 10.5027 -5.5366 6.41677 10.9555 -5.35318 6.60333 11.3854 -5.17895 6.72053 11.8256 -4.97275 6.83642 12.2619 -4.75788 6.93918 12.6996 -4.53897 7.01545 13.1528 -4.34208 7.10629 13.5998 -4.13728 7.22057 14.0472 -3.9456 7.32838 14.4884 -3.73656 7.43636 14.9332 -3.53526 7.53433 15.3859 -3.3469 7.63994 15.8241 -3.13043 7.74073 16.2594 -2.90602 7.87895 16.6741 -2.66337 7.99988 17.093 -2.41859 8.11901 17.5146 -2.1777 8.22092 17.9372 -1.93064 8.33463 18.3513 -1.74554 5.32527 5.04207 -10.2576 5.23141 5.5105 -10.1101 5.10172 5.95729 -9.92687 4.97214 6.40517 -9.74628 4.83619 6.84492 -9.551 4.69501 7.28557 -9.36153 4.5574 7.72589 -9.16872 4.47744 8.16362 -8.94068 4.39332 8.60206 -8.71552 4.32867 9.05546 -8.5149 4.23029 9.51246 -8.33751 4.12754 9.96885 -8.161 4.04325 10.4325 -7.99396 3.96518 10.8955 -7.82208 3.882 11.3625 -7.66388 3.72916 11.8129 -7.50973 3.57663 12.2654 -7.36151 3.43016 12.721 -7.21668 3.28085 13.1815 -7.09153 3.14839 13.6414 -6.94687 3.01663 14.1021 -6.80388 2.91829 14.5599 -6.62853 2.86766 15.0078 -6.41222 2.81553 15.4555 -6.19572 2.73121 15.8943 -5.9714 2.63698 16.3508 -5.79041 2.52607 16.8134 -5.63661 2.42021 17.2828 -5.50081 2.32965 17.7497 -5.34646 2.2416 18.2173 -5.1929 2.1536 18.6854 -5.04075 2.11082 18.8566 -4.98645 5.55188 5.70652 -12.1265 5.77548 5.30612 -12.3257 5.99659 4.91215 -12.5399 6.21701 4.51327 -12.7456 6.49753 4.15392 -12.951 6.77621 3.78434 -13.1401 7.0352 3.41036 -13.3476 7.25813 3.0122 -13.552 7.48982 2.61389 -13.7461 7.73042 2.21964 -13.9376 7.96177 1.83014 -14.1491 8.18709 1.43814 -14.3626 8.39832 1.05239 -14.6005 8.63719 0.652592 -14.7824 8.83384 0.266728 -15.0323 9.0212 -0.120445 -15.2872 9.19929 -0.51293 -15.5407 9.37382 -0.883609 -15.8273 9.56269 -1.24504 -16.1166 9.7244 -1.63711 -16.3814 9.90357 -2.02175 -16.6459 10.0937 -2.41836 -16.8837 10.3092 -2.81075 -17.1063 10.5313 -3.19085 -17.3434 10.7792 -3.54694 -17.5919 11.0292 -3.90724 -17.8321 11.2783 -4.2803 -18.0529 11.5622 -4.6473 -18.2393 11.836 -5.01637 -18.4362 11.9943 -5.32227 -18.607 5.75051 6.27705 -14.0311 6.07091 6.65239 -13.9507 6.44323 6.97313 -13.8585 6.77692 7.3416 -13.8048 7.094 7.72605 -13.7641 7.43654 8.08962 -13.742 7.76179 8.46668 -13.6969 8.08892 8.84312 -13.6612 8.40542 9.22672 -13.6094 8.69899 9.61869 -13.5085 8.98774 10.0159 -13.4145 9.23224 10.4436 -13.329 9.49696 10.8667 -13.2996 9.72216 11.3035 -13.2074 9.95147 11.7401 -13.1249 10.158 12.1875 -13.0404 10.3849 12.6272 -12.968 10.628 13.0602 -12.9095 10.8828 13.4851 -12.8422 11.1088 13.9267 -12.78 11.3344 14.368 -12.7138 11.4966 14.8318 -12.6212 11.6731 15.2889 -12.5217 11.8495 15.746 -12.4218 12.0376 16.1958 -12.3111 12.2224 16.6292 -12.1437 12.4069 17.0635 -11.9784 12.6211 17.4916 -11.834 12.6529 17.5472 -11.8169 5.9841 6.53891 -15.9992 5.75406 6.97953 -15.9451 5.47544 7.39309 -15.9084 5.1925 7.80337 -15.8682 4.94709 8.22824 -15.772 4.70417 8.65263 -15.6676 4.47528 9.09136 -15.5961 4.24912 9.53085 -15.5206 4.01534 9.96898 -15.4623 3.79701 10.414 -15.3968 3.58105 10.8613 -15.3395 3.36486 11.3085 -15.282 3.07664 11.7075 -15.1943 2.78718 12.1068 -15.112 2.46915 12.4849 -15.0353 2.15188 12.8657 -14.9691 1.83488 13.2462 -14.9004 1.53293 13.6332 -14.8052 1.24607 14.0354 -14.7281 0.957894 14.4367 -14.6514 0.691746 14.8495 -14.5579 0.405933 15.256 -14.5023 0.109785 15.6578 -14.4726 -0.173456 16.0612 -14.389 -0.455694 16.4654 -14.3055 -0.717737 16.8854 -14.2348 -0.837597 17.0788 -14.2037 6.02202 6.34853 -17.9835 5.54468 6.28494 -18.118 5.07432 6.22163 -18.2754 4.60366 6.15844 -18.4318 4.12881 6.11773 -18.583 3.65066 6.10378 -18.7286 3.17273 6.11913 -18.8747 2.68192 6.08491 -18.9637 2.1898 6.05419 -19.0466 1.69871 6.04563 -19.1402 1.20982 6.04707 -19.245 0.734556 6.03003 -19.3994 0.264259 6.02445 -19.5691 -0.206165 6.00892 -19.7378 -0.65901 5.94505 -19.9399 -1.1011 5.87673 -20.1633 -1.53147 5.7618 -20.3904 -1.96738 5.64116 -20.6035 -2.40355 5.52701 -20.8197 -2.85026 5.39051 -20.998 -3.27157 5.2305 -21.2146 -3.70542 5.07803 -21.4109 -4.1341 4.91608 -21.6109 -4.57996 4.78797 -21.7974 -4.91236 4.69326 -21.9405 6.17818 6.01856 -19.9491 5.6818 6.07251 -19.9755 5.18593 6.13592 -19.9851 4.68996 6.19859 -19.9945 4.19357 6.25391 -19.9713 3.70679 6.33633 -19.8923 3.2217 6.42765 -19.8126 2.73483 6.53023 -19.7632 2.24114 6.60839 -19.7506 1.74937 6.69812 -19.7403 1.26008 6.80103 -19.7378 0.771569 6.90735 -19.7303 0.290256 7.04273 -19.7273 -0.191672 7.17588 -19.7315 -0.666464 7.3313 -19.7519 -1.13872 7.49302 -19.7805 -1.60882 7.65997 -19.8142 -2.07344 7.83761 -19.8649 -2.53195 8.02747 -19.926 -2.97777 8.24148 -19.9997 -3.43365 8.43099 -20.0788 -3.88757 8.6144 -20.1804 -4.34216 8.79935 -20.2692 6.25719 5.88452 -21.9394 6.71621 6.07382 -21.9983 7.17045 6.26412 -22.0846 7.60869 6.48945 -22.1693 8.07548 6.65421 -22.2398 8.52099 6.86884 -22.3136 8.96365 7.10036 -22.3349 9.40615 7.33125 -22.3646 9.846 7.56486 -22.4088 10.2949 7.78383 -22.4317 10.7237 8.04084 -22.4401 11.1571 8.29031 -22.4386 11.5792 8.55827 -22.4348 11.9821 8.85427 -22.4408 12.3851 9.15022 -22.4467 12.7862 9.44864 -22.4474 13.1903 9.74124 -22.4813 13.5845 10.0465 -22.518 13.9483 10.3851 -22.5732 14.2641 10.7701 -22.6181 14.5787 11.1556 -22.6678 14.6417 11.2368 -22.6748 6.24641 5.82555 -23.9368 6.47052 5.38127 -23.9857 6.70428 4.94298 -24.0428 6.96551 4.51914 -24.0888 7.23756 4.10258 -24.1385 7.48868 3.67038 -24.1505 7.72964 3.23331 -24.1204 7.98872 2.80573 -24.1276 8.25823 2.38463 -24.1337 8.54791 1.97737 -24.1487 8.87231 1.59775 -24.1744 9.19612 1.21762 -24.1998 9.53014 0.846965 -24.2322 9.87492 0.48973 -24.2914 10.2282 0.138289 -24.3324 10.5613 -0.22244 -24.4267 10.9085 -0.573182 -24.5073 11.2352 -0.93615 -24.6144 11.536 -1.31427 -24.7431 11.6473 -1.454 -24.796 5.82423 6.03824 -25.875 6.30045 6.1645 -25.9603 6.76966 6.33457 -25.9906 7.23227 6.51866 -26.0365 7.68945 6.71634 -26.0802 8.12768 6.94879 -26.1428 8.57242 7.16311 -26.222 9.01883 7.37446 -26.2998 9.46008 7.59974 -26.3672 9.90114 7.82521 -26.4352 10.3336 8.06695 -26.5025 10.7818 8.28036 -26.5622 11.2356 8.48423 -26.6127 11.6901 8.68629 -26.6636 12.153 8.87108 -26.7037 12.5964 9.1021 -26.7055 13.0324 9.34178 -26.6565 13.2442 9.46766 -26.6291 5.51799 6.49211 -27.7968 5.37378 6.9502 -27.6577 5.20778 7.39367 -27.4972 5.03442 7.82867 -27.3219 4.83749 8.27029 -27.1946 4.66945 8.71668 -27.0446 4.47368 9.16476 -26.9403 4.23139 9.5804 -26.8041 3.96716 9.98273 -26.6688 3.70987 10.3876 -26.5276 3.45678 10.7965 -26.3907 3.29594 11.2363 -26.2157 3.20215 11.6795 -26.0039 3.11094 12.1287 -25.8042 3.01635 12.5841 -25.6209 2.96199 12.8451 -25.515 5.17197 6.85487 -29.7315 5.54819 7.18366 -29.7126 5.93821 7.49028 -29.6504 6.3349 7.78952 -29.5948 6.73106 8.08916 -29.5375 7.12249 8.39756 -29.4966 7.53573 8.67813 -29.474 7.9132 9.00595 -29.4812 8.29922 9.32324 -29.4988 8.69622 9.6249 -29.4614 9.09301 9.92695 -29.425 9.47062 10.2543 -29.4093 9.84523 10.5852 -29.3969 10.0709 10.7867 -29.3931 4.98538 7.30823 -31.666 5.4527 7.4616 -31.576 5.92814 7.58235 -31.4792 6.40574 7.69639 -31.3849 6.88973 7.81982 -31.3621 7.36346 7.96067 -31.2863 7.84027 8.09931 -31.2278 8.32802 8.20202 -31.1884 8.80975 8.32727 -31.141 9.29713 8.40366 -31.0596 9.78667 8.49532 -31.0155 10.0734 8.55478 -30.988 4.74682 7.56564 -33.6331 4.7326 8.04035 -33.4767 4.72968 8.51641 -33.3239 4.72386 8.98376 -33.1462 4.75073 9.45219 -32.9735 4.7699 9.92271 -32.8054 4.78109 10.3928 -32.6353 4.75848 10.8536 -32.4426 4.76844 11.283 -32.1866 4.78774 11.492 -32.032 4.6728 7.79302 -35.6184 5.09136 8.05952 -35.5569 5.50904 8.32743 -35.4955 5.91725 8.61479 -35.4674 6.32015 8.90868 -35.4313 6.72537 9.19766 -35.3835 7.12935 9.48691 -35.3275 7.29308 9.60189 -35.3044 4.53963 7.88067 -37.6102 4.59593 8.37048 -37.6933 4.64516 8.86122 -37.7755 4.66231 9.35017 -37.8786 4.66438 9.84046 -37.9767 4.66915 9.9533 -37.9997 4.26166 7.72434 -39.5837 4.65565 7.41654 -39.5895 5.07441 7.14939 -39.6467 5.07551 7.14869 -39.6468 0 0 -1.2 -0.434318 0.0118778 -1.44744 -0.864504 0.0187902 -1.70218 -1.29464 0.0224112 -1.95707 -1.71922 0.00462424 -2.22053 -2.11835 0.00399158 -2.52169 -2.51005 0.0152265 -2.83225 -2.89982 0.0440631 -3.14409 -3.29544 0.0606594 -3.4494 -3.6854 0.0837402 -3.76148 -4.07543 0.106045 -4.07355 -4.45993 0.0992123 -4.39309 -4.84767 0.0956408 -4.70876 -5.27179 0.102404 -4.97347 -5.69132 0.112912 -5.24529 -6.09479 0.127716 -5.54024 -6.49374 0.114036 -5.84133 -6.88141 0.0682508 -6.15376 -7.26533 0.0274596 -6.47147 -7.61381 -0.0673612 -6.81726 -7.94997 -0.183629 -7.16866 -8.26867 -0.284627 -7.54045 -8.59403 -0.365232 -7.91145 -8.95228 -0.445981 -8.25077 -9.29022 -0.572534 -8.59686 -9.65404 -0.647508 -8.93154 -10.0091 -0.690866 -9.28092 -10.3646 -0.732867 -9.62998 -10.7453 -0.739137 -9.95405 -11.1053 -0.83892 -10.2864 -11.4756 -0.895221 -10.6176 -11.8391 -0.96199 -10.9544 -12.199 -1.02542 -11.2956 -12.5 -1.11474 -11.6848 -12.7888 -1.22714 -12.0771 -13.0727 -1.3533 -12.4689 -13.3816 -1.45165 -12.8495 -13.6581 -1.54419 -13.2557 -13.9217 -1.60625 -13.6761 -14.1739 -1.68024 -14.1014 -14.4163 -1.75623 -14.5321 -14.6575 -1.827 -14.9643 -14.8696 -1.9065 -15.41 -15.0743 -1.98913 -15.8587 -15.2489 -2.1052 -16.3126 -15.4281 -2.22254 -16.7644 -15.6052 -2.35796 -17.2119 -15.7363 -2.48552 -17.6773 -15.8672 -2.61152 -18.1431 -15.9852 -2.76698 -18.6034 -16.0914 -2.88286 -19.0781 -16.1571 -2.98817 -19.5624 -16.1834 -3.1005 -20.0489 -16.2037 -3.21082 -20.5362 -16.208 -3.30547 -21.0271 -16.2049 -3.37349 -21.5225 -16.1956 -3.44281 -22.0176 -16.188 -3.51437 -22.5123 -16.1238 -3.5946 -23.0017 -16.0459 -3.63758 -23.4937 -15.9661 -3.67604 -23.9858 -15.8696 -3.71361 -24.4749 -15.7666 -3.77028 -24.9609 -15.6896 -3.853 -25.448 -15.6153 -3.94744 -25.9333 -15.5396 -4.03801 -26.4192 -15.4811 -4.09447 -26.9125 -15.42 -4.15356 -27.4053 -15.3085 -4.20844 -27.8896 -15.2439 -4.24409 -28.3841 -15.1777 -4.27478 -28.8787 -15.075 -4.3102 -29.3668 -14.9814 -4.32223 -29.8578 -14.9109 -4.29162 -30.3519 -14.8389 -4.25963 -30.8456 -14.7603 -4.23103 -31.3386 -14.6256 -4.21905 -31.82 -14.5011 -4.23739 -32.3038 -14.3625 -4.29665 -32.7806 -14.2146 -4.30773 -33.2581 -14.117 -4.33999 -33.7474 -14.0222 -4.37378 -34.2372 -13.9275 -4.40606 -34.7271 -13.8663 -4.42829 -35.2228 -13.7902 -4.45444 -35.7163 -13.6961 -4.54392 -36.1991 -13.6133 -4.67541 -36.6744 -13.5419 -4.80983 -37.1507 -13.478 -4.95013 -37.6263 -13.4195 -5.07597 -38.1066 -13.3614 -5.16892 -38.4688 -1.71922 0.00462424 -2.22053 -1.71681 0.470181 -2.40288 -1.67528 0.920046 -2.61712 -1.62652 1.36636 -2.83717 -1.59525 1.82249 -3.03957 -1.55217 2.29012 -3.21124 -1.50404 2.7576 -3.38197 -1.47078 3.22613 -3.55335 -1.4321 3.6893 -3.73767 -1.40576 4.14968 -3.93095 -1.39945 4.61511 -4.11354 -1.37581 5.0805 -4.2948 -1.34584 5.54674 -4.47291 -1.31835 6.01584 -4.64375 -1.28792 6.4885 -4.80396 -1.231 6.96635 -4.93969 -1.14076 7.42866 -5.10739 -1.076 7.8953 -5.27489 -1.0125 8.36178 -5.44329 -0.976321 8.84134 -5.58009 -0.94085 9.32108 -5.71643 -0.932383 9.68063 -5.81254 -3.29544 0.0606594 -3.4494 -3.38534 0.487282 -3.20463 -3.47977 0.915574 -2.96452 -3.57535 1.35166 -2.73938 -3.66013 1.78024 -2.49619 -3.70427 2.21773 -2.25819 -3.77044 2.6501 -2.01594 -3.82484 3.07689 -1.7612 -3.87376 3.49137 -1.48586 -3.91301 3.92779 -1.24505 -3.94894 4.36215 -1.00002 -3.98265 4.79677 -0.755126 -4.00542 5.23479 -0.515075 -4.01042 5.67038 -0.269653 -4.01903 6.10478 -0.0222212 -4.1364 6.54654 0.180449 -4.25482 6.9884 0.38227 -4.35466 7.43946 0.573518 -4.45945 7.89232 0.757742 -4.57429 8.3426 0.942308 -4.5879 8.39003 0.960606 -4.84767 0.0956408 -4.70876 -5.19705 0.284251 -4.40486 -5.55645 0.469338 -4.11063 -5.92061 0.65235 -3.82098 -6.27648 0.845217 -3.52745 -6.64021 1.04327 -3.24731 -6.99704 1.22155 -2.94584 -7.34168 1.40813 -2.63534 -7.6949 1.58686 -2.3299 -8.03636 1.77103 -2.01448 -8.34299 1.99056 -1.68618 -8.64656 2.18133 -1.33768 -8.9499 2.37324 -0.98961 -9.2401 2.52428 -0.611488 -9.52261 2.64459 -0.216881 -9.8025 2.76272 0.180238 -10.0781 2.87948 0.580734 -10.3464 3.00793 0.982672 -10.4693 3.07181 1.14777 -6.49374 0.114036 -5.84133 -6.26852 -0.00686193 -6.27105 -6.00219 -0.153313 -6.66806 -5.80287 -0.271714 -7.11107 -5.57635 -0.356582 -7.54866 -5.36662 -0.439717 -7.99487 -5.14577 -0.550834 -8.42947 -4.91484 -0.681356 -8.8533 -4.68219 -0.778346 -9.28512 -4.43691 -0.885926 -9.70733 -4.22167 -0.979387 -10.1488 -3.9949 -1.09163 -10.5801 -3.76448 -1.18628 -11.0136 -3.53278 -1.26123 -11.4503 -3.2996 -1.34374 -11.8849 -3.07639 -1.41519 -12.3265 -2.90999 -1.4639 -12.6426 -7.94997 -0.183629 -7.16866 -8.20982 0.241914 -7.20597 -8.43514 0.684281 -7.26548 -8.66322 1.12719 -7.30805 -8.88751 1.5718 -7.35292 -9.11454 2.01523 -7.39566 -9.35325 2.45092 -7.45219 -9.58407 2.88861 -7.52392 -9.8342 3.31494 -7.5993 -10.0858 3.74325 -7.65613 -10.3463 4.16619 -7.71352 -10.608 4.5878 -7.77466 -10.8329 5.03344 -7.80305 -11.0914 5.46085 -7.82652 -11.3479 5.8738 -7.80018 -9.29022 -0.572534 -8.59686 -9.59107 -0.36466 -8.25587 -9.90205 -0.154614 -7.92545 -10.2138 0.0379137 -7.58524 -10.529 0.223901 -7.24459 -10.8351 0.451383 -6.92121 -11.1431 0.683307 -6.60285 -11.4554 0.908583 -6.28392 -11.7849 1.12608 -5.97711 -12.1173 1.3405 -5.67133 -12.4363 1.56605 -5.35925 -12.7633 1.77709 -5.04535 -13.0897 1.97994 -4.72547 -13.1492 2.0182 -4.66342 -10.7453 -0.739137 -9.95405 -11.0294 -0.426941 -9.68607 -11.3058 -0.0990122 -9.42902 -11.573 0.225418 -9.15821 -11.8578 0.530631 -8.88299 -12.1532 0.840232 -8.62434 -12.4229 1.15397 -8.34362 -12.7056 1.45264 -8.05921 -12.9973 1.75374 -7.78668 -13.2675 2.08282 -7.52463 -13.5359 2.40718 -7.25483 -13.6231 2.52444 -7.14702 -12.199 -1.02542 -11.2956 -12.1208 -0.624677 -11.5842 -12.0409 -0.222297 -11.87 -11.9495 0.173122 -12.1621 -11.8814 0.573827 -12.4533 -11.8281 0.980151 -12.7397 -11.7652 1.37453 -13.0406 -11.7625 1.77098 -13.3453 -11.7512 2.17317 -13.6421 -11.7462 2.37308 -13.7901 -13.3816 -1.45165 -12.8495 -13.6522 -1.04201 -12.7549 -13.875 -0.605079 -12.6575 -14.1157 -0.18089 -12.5475 -14.3569 0.243582 -12.4394 -14.6005 0.665106 -12.3256 -14.8195 1.10135 -12.2174 -14.9529 1.3572 -12.1566 -14.4163 -1.75623 -14.5321 -14.4799 -1.27589 -14.6555 -14.5408 -0.791018 -14.7613 -14.5927 -0.305968 -14.871 -14.6434 0.180979 -14.9725 -14.6468 0.493837 -15.0358 -15.2489 -2.1052 -16.3126 -15.7415 -2.1691 -16.2559 -16.2331 -2.19259 -16.1675 -16.5513 -2.19739 -16.125 -15.8672 -2.61152 -18.1431 -15.636 -2.47769 -18.2792 0 0 -1.2 0.396335 0.0517783 -1.5004 0.79339 0.103187 -1.7999 1.18523 0.157574 -2.10568 1.58057 0.217845 -2.40581 1.9457 0.290847 -2.7395 2.32972 0.314951 -3.05879 2.73304 0.371121 -3.34892 3.11184 0.400853 -3.67393 3.48947 0.421132 -4.00102 3.85483 0.426603 -4.34231 4.22047 0.415094 -4.68315 4.569 0.400934 -5.04138 4.89257 0.41699 -5.42223 5.21367 0.429089 -5.80531 5.53332 0.46483 -6.18812 5.84875 0.47009