<?xml version="1.0"?><VTKFile type="PolyData" version="0.1" byte_order="LittleEndian">
<PolyData>
<Piece NumberOfLines="150" NumberOfPoints="1004">
<PointData Scalars=" PointData">
<DataArray type="Float32" Name="time" NumberOfComponents="1" format="ascii" >
0 0.13736 0.264429 0.374476 0.496731 0.619433 0.73473 0.867245 0.975764 1.0954 1.22151 1.36267 1.4913 1.61142 1.7189 1.82712 1.94066 2.04811 2.17971 2.32233 2.47027 2.57903 2.70241 2.85094 2.98507 3.12924 3.24198 3.3869 3.50444 3.62834 3.75806 3.90677 3.99574 4.09109 4.18368 4.29242 4.41301 4.53894 4.68763 4.823 4.95304 5.07389 5.20444 5.33899 5.46653 5.58717 5.71799 5.85343 6.00335 6.11236 6.2724 6.42493 6.56721 6.69487 6.83135 6.98969 7.1226 7.2682 7.40166 7.54778 7.66614 7.78599 7.9302 8.0576 8.20935 8.32444 8.47436 8.59794 8.75071 8.89701 9.03584 9.18265 9.33316 9.47538 9.63335 9.77809 9.88802 10.0516 10.2043 10.3492 10.493 10.6655 10.8097 10.9448 11.0676 11.2099 11.3544 11.5073 11.667 11.8269 11.9745 12.1336 12.2702 12.4301 12.5765 12.7178 12.8921 13.0405 13.195 13.3626 13.5098 13.6501 13.8156 13.9809 14.1396 14.3057 14.4642 14.6402 14.8119 14.9494 15.1047 15.2948 15.4619 15.6204 15.7912 15.9609 16.1098 16.28 16.4293 16.6067 16.7781 16.9059 17.0633 17.2146 17.4047 17.5555 17.7335 17.9054 18.0767 18.2586 18.4185 18.5994 18.7264 18.8851 19.0333 19.2085 19.3867 19.5546 19.7487 19.9507 20.147 20.2977 20.4932 20.6654 20.8508 21 6.19638 7.6542 9.31232 11.2347 13.5217 16.345 20.0357 21 6.33732 8.48026 10.9176 13.7434 17.1052 21 6.45941 7.91474 9.57002 11.4891 13.7722 16.5907 20.275 21 6.59508 7.93497 9.45895 11.2258 13.3278 15.9227 19.3148 21 6.73127 8.22882 9.93213 11.9069 14.2562 17.1565 20.9477 21 6.85927 8.24388 9.81871 11.6445 13.8167 16.4982 20.0035 21 7.00642 8.48367 10.1639 12.1118 14.4294 17.2903 21 7.12696 8.52953 10.1248 11.9743 14.1746 16.8909 20.4417 21 7.25987 8.8923 10.749 12.9016 15.4626 18.624 21 7.4 8.56345 9.88675 11.4209 13.2462 15.4994 18.4448 21 7.55689 8.80199 10.2181 11.86 13.8133 16.2246 19.3767 21 7.69991 9.08391 10.6581 12.4831 14.6543 17.3347 20.8384 21 7.83348 9.3938 11.1685 13.226 15.6738 18.6956 21 7.95303 9.85264 12.0132 14.5182 17.4983 21 8.07343 9.44867 11.0129 12.8263 14.9838 17.6472 21 8.19976 9.74535 11.5033 13.5414 15.9661 18.9594 21 8.31935 9.79467 11.4727 13.4181 15.7326 18.5898 21 8.46586 9.76356 11.2396 12.9508 14.9866 17.4998 20.7851 21 8.62466 10 11.5722 13.3948 15.5627 18.2384 21 8.78946 10.1477 11.6925 13.4836 15.6144 18.2448 21 8.91063 10.4712 12.2461 14.3039 16.7521 19.7743 21 9.04812 10.4401 12.0232 13.8587 16.0424 18.7381 21 9.21368 10.6135 12.2056 14.0514 16.2474 18.9583 21 9.36323 10.5564 11.9135 13.4869 15.3588 17.6696 20.6902 21 9.52402 10.8462 12.3501 14.0936 16.1679 18.7285 21 9.64979 10.9868 12.5074 14.2704 16.3679 18.9571 21 9.8115 11.164 12.7022 14.4856 16.6074 19.2266 21 9.94269 11.5665 13.4133 15.5545 18.1019 21 10.081 11.5824 13.29 15.2698 17.6251 20.5328 21 10.2259 11.5501 13.0563 14.8025 16.88 19.4447 21 10.392 11.737 13.2667 15.0402 17.1502 19.755 21 10.4914 11.8773 13.4536 15.2811 17.4554 20.1394 21 10.5979 11.9773 13.5462 15.365 17.529 20.2003 21 10.7014 12.3824 14.2943 16.5108 19.1479 21 10.823 12.3829 14.1572 16.2142 18.6615 21 10.9578 12.4016 14.0437 15.9475 18.2124 21 11.0987 12.4939 14.0808 15.9207 18.1095 20.8116 21 11.265 12.6364 14.1962 16.0045 18.156 20.8118 21 11.4165 12.9795 14.7571 16.818 19.27 21 11.5621 12.9192 14.4628 16.2523 18.3814 21 11.6974 13.2569 15.0306 17.0869 19.5334 21 11.8436 13.311 14.9801 16.9151 19.2172 21 11.9943 13.4642 15.136 17.0742 19.3801 21 12.1373 13.5195 15.0917 16.9143 19.0828 21 12.2725 13.5506 15 16.6846 18.6886 21 12.4191 13.7976 15.3655 17.1832 19.3458 21 12.571 13.7544 15.1004 16.6609 18.5174 20.8092 21 12.7392 14.0558 15.5532 17.2892 19.3546 21 12.8615 14.3026 15.9416 17.8418 20.1026 21 13.0412 14.6388 16.456 18.5628 21 13.2124 14.4974 15.9589 17.6532 19.6691 21 13.3722 14.8454 16.521 18.4636 20.7748 21 13.5156 14.7691 16.1947 17.8474 19.8138 21 13.669 15.1682 16.8734 18.8502 21 13.847 15.2253 16.7929 18.6104 20.7726 21 13.9965 15.6516 17.5342 19.7168 21 14.1602 15.4985 17.0207 18.7854 20.8849 21 14.3104 15.8645 17.6322 19.6815 21 14.4748 16.0488 17.8391 19.9146 21 14.6081 16.2808 18.1833 20.3891 21 14.743 16.1286 17.7045 19.5316 21 14.9055 16.1883 17.6474 19.339 21 15.049 16.3787 17.891 19.6443 21 15.2201 16.5195 17.9975 19.711 21 15.3498 16.6348 18.0963 19.7908 21 15.5189 16.9285 18.5318 20.3906 21 15.6583 17.3501 19.2742 21 15.8307 17.188 18.7318 20.5217 21 15.9958 17.1863 18.5404 20.1102 21 16.1526 17.5514 19.1425 20.9871 21 16.3184 17.9713 19.8513 21 16.4884 17.8658 19.4324 21 16.6492 18.1331 19.8208 21 16.8278 18.0905 19.5268 21 16.9915 18.3404 19.8747 21 17.1158 18.4413 19.9489 21 17.3009 18.5187 19.9039 21 17.4738 18.8633 20.4438 21 17.6379 18.9769 20.4998 21 17.8008 19.1487 20.6819 21 17.9962 19.6139 21 18.1597 19.3955 20.8011 21 18.3129 19.6077 21 18.4522 19.802 21 18.6137 20.0399 21 18.7777 19.9686 21 18.9513 20.5159 21 19.1327 20.5995 21 19.3144 21 19.4821 20.934 21 19.6631 21 19.8185 21 20.0004 21 20.1671 21 20.328 21 20.5265 21 20.6955 21 20.8717 21 7 7.13307 7.25838 7.41618 7.55048 7.68227 7.80305 7.91648 8.04476 8.19487 8.34269 8.47925 8.61286 8.76295 8.89756 9.02732 9.14005 9.26706 9.42365 9.57116 9.69177 9.8289 9.95921 10.1069 10.2511 10.3857 10.527 10.6805 10.8313 10.9737 11.11 11.2539 11.36 11.5107 11.6792 11.8217 11.9846 12.1276 12.2599 12.4169 12.5452 12.6781 12.8166 12.9626 13.0908 13.2354 13.3566 13.5233 13.6281 13.7676 13.8922 14.0436 14.1719 14.3143 14.4653 14.6088 14.768 14.9192 15.0984 15.2566 15.4054 15.5282 15.6758 15.8466 15.9923 16.1429 16.2982 16.4665 16.6293 16.8159 16.9752 17.1423 17.2721 17.4352 17.591 17.7306 17.8915 18.0378 18.1812 18.3147 18.4711 18.642 18.8145 18.9549 19.138 19.2886 19.4305 19.5853 19.7399 19.9058 20.0636 20.229 20.4013 20.5273 20.7098 20.888 21 14.3681 15.7033 17.222 18.9827 21 14.5086 16.116 17.9443 20.0639 21 14.6855 16.0707 17.6463 19.4729 21 14.8361 16.5258 18.4477 20.6759 21 14.9839 16.4427 18.1018 20.0254 21 15.1194 16.5427 18.1615 20.0382 21 15.2467 16.7488 18.4573 20.4381 21 15.3907 16.6842 18.1555 19.8612 21 15.5592 16.8108 18.2343 19.8847 21 15.7253 17.239 18.9608 20.9569 21 15.8787 17.2354 18.7785 20.5675 21 16.0288 17.2704 18.6825 20.3197 21 16.1975 17.7922 19.6061 21 16.3489 17.6992 19.235 21 16.4948 17.9264 19.5547 21 16.6216 17.9087 19.3727 21 16.7645 18.4014 20.2632 21 16.9408 18.2161 19.6666 21 17.1068 18.3354 19.7328 21 17.2426 18.5813 20.1039 21 17.3971 18.731 20.2482 21 17.5439 18.921 20.4873 21 17.7103 18.8592 20.166 21 17.8729 19.2079 20.7264 21 18.0247 19.5523 21 18.1841 19.6795 21 18.3573 19.7295 21 18.5275 19.868 21 18.6883 20.218 21 18.8422 20.3786 21 19.0047 20.1596 21 19.1246 20.7746 21 19.2949 21 19.4855 20.8109 21 19.6466 20.9925 21 19.8309 21 19.9928 21 20.1425 21 20.3203 21 20.4656 21 20.6162 21 20.7731 21 20.9387 21 14 14.1124 14.2245 14.3314 14.4476 14.5538 14.6524 14.7686 14.8728 14.9791 15.0835 15.2101 15.3274 15.4471 15.5639 15.6865 15.7983 15.8907 15.9974 16.118 16.2553 16.3859 16.4923 16.6108 16.7669 16.8642 16.9883 17.0971 17.2421 17.3568 17.4817 17.6223 17.7371 17.8477 17.9819 18.1043 18.2365 18.3798 18.4997 18.5978 18.7248 18.8606 18.9943 19.1173 19.2384 19.3316 19.4425 19.5681 19.6879 19.831 19.9691 20.0851 20.243 20.3531 20.487 20.6156 20.74 20.8552 20.9919 21 20.3285 21 20.454 21 20.5738 21 20.704 21 20.8231 21 20.9336 21 
</DataArray>

</PointData>
<CellData Scalars=" CellData">
<DataArray type="Float32" Name="radius" NumberOfComponents="1" format="ascii" >
0.147243 0.0484715 0.055323 0.05072 0.0462043 0.0502084 0.0465281 0.0412381 0.0562079 0.0552885 0.0499287 0.04986 0.0565293 0.0547064 0.0562559 0.0418716 0.0394436 0.0466774 0.057676 0.0435541 0.049476 0.0510986 0.0423477 0.0457412 0.0498987 0.0389136 0.0516028 0.0500673 0.0453286 0.0520447 0.0556549 0.0565904 0.0552981 0.0533507 0.0557732 0.0522296 0.0405236 0.0463165 0.0471328 0.0556357 0.0502582 0.0508194 0.0512381 0.0542923 0.043532 0.0500171 0.0536174 0.0542258 0.0594267 0.0534619 0.055089 0.0416727 0.0462144 0.0451818 0.0466336 0.0508855 0.0473906 0.0513809 0.0483122 0.0435595 0.0486203 0.0471018 0.0522616 0.0427263 0.0544495 0.0458603 0.0512445 0.0508222 0.0444562 0.0448308 0.0550399 0.048352 0.0532179 0.0483109 0.045692 0.0496439 0.0481767 0.0508259 0.0458423 0.0467171 0.0531096 0.0573135 0.0520533 0.0494929 0.0563233 0.0398387 0.0513759 0.0457224 0.0610283 0.0590308 0.0506609 0.0524146 0.0544034 0.053571 0.0440525 0.0521558 0.0496886 0.0525261 0.0509236 0.129856 0.0379609 0.0563177 0.0455805 0.0515277 0.040541 0.0519041 0.0456426 0.0472017 0.0409512 0.0393274 0.0505141 0.050125 0.0473905 0.0492014 0.0577368 0.0549983 0.0446669 0.0363596 0.0542099 0.0459925 0.0487902 0.043525 0.0485146 0.052903 0.0537953 0.045666 0.0499723 0.0559544 0.0447619 0.0439114 0.0532281 0.0441593 0.0553741 0.0465 0.0482154 0.0459886 0.0558967 0.0515006 0.0502985 0.0403528 0.0491739 0.0526832 0.0507676 0.15029 0.0510814 0.0436759 0.0445158 0.0524691 0.0535753 0.0572171 
</DataArray>
<DataArray type="Float32" Name="subType" NumberOfComponents="1" format="ascii" >
1 2 2 2 2 2 2 2 2 2 2 2 2 2 2 2 2 2 2 2 2 2 2 2 2 2 2 2 2 2 2 2 2 2 2 2 2 2 2 2 2 2 2 2 2 2 2 2 2 2 2 2 2 2 2 2 2 2 2 2 2 2 2 2 2 2 2 2 2 2 2 2 2 2 2 2 2 2 2 2 2 2 2 2 2 2 2 2 2 2 2 2 2 2 2 2 2 2 2 4 2 2 2 2 2 2 2 2 2 2 2 2 2 2 2 2 2 2 2 2 2 2 2 2 2 2 2 2 2 2 2 2 2 2 2 2 2 2 2 2 2 2 2 4 2 2 2 2 2 2 
</DataArray>
<DataArray type="Float32" Name="creationTime" NumberOfComponents="1" format="ascii" >
0 6.19638 6.33732 6.45941 6.59508 6.73127 6.85927 7.00642 7.12696 7.25987 7.4 7.55689 7.69991 7.83348 7.95303 8.07343 8.19976 8.31935 8.46586 8.62466 8.78946 8.91063 9.04812 9.21368 9.36323 9.52402 9.64979 9.8115 9.94269 10.081 10.2259 10.392 10.4914 10.5979 10.7014 10.823 10.9578 11.0987 11.265 11.4165 11.5621 11.6974 11.8436 11.9943 12.1373 12.2725 12.4191 12.571 12.7392 12.8615 13.0412 13.2124 13.3722 13.5156 13.669 13.847 13.9965 14.1602 14.3104 14.4748 14.6081 14.743 14.9055 15.049 15.2201 15.3498 15.5189 15.6583 15.8307 15.9958 16.1526 16.3184 16.4884 16.6492 16.8278 16.9915 17.1158 17.3009 17.4738 17.6379 17.8008 17.9962 18.1597 18.3129 18.4522 18.6137 18.7777 18.9513 19.1327 19.3144 19.4821 19.6631 19.8185 20.0004 20.1671 20.328 20.5265 20.6955 20.8717 7 14.3681 14.5086 14.6855 14.8361 14.9839 15.1194 15.2467 15.3907 15.5592 15.7253 15.8787 16.0288 16.1975 16.3489 16.4948 16.6216 16.7645 16.9408 17.1068 17.2426 17.3971 17.5439 17.7103 17.8729 18.0247 18.1841 18.3573 18.5275 18.6883 18.8422 19.0047 19.1246 19.2949 19.4855 19.6466 19.8309 19.9928 20.1425 20.3203 20.4656 20.6162 20.7731 20.9387 14 20.3285 20.454 20.5738 20.704 20.8231 20.9336 
</DataArray>

</CellData>
<Points>
<DataArray type="Float32" Name="Coordinates" NumberOfComponents="3" format="ascii" >
0 0 -3 0.494581 0.0317302 -3.26217 0.924678 0.0982239 -3.54215 1.29639 0.176025 -3.77841 1.6992 0.240815 -4.06029 2.05915 0.330958 -4.39042 2.39098 0.419244 -4.70508 2.78317 0.474596 -5.06349 3.10016 0.517932 -5.36049 3.39788 0.555294 -5.73557 3.66084 0.566629 -6.16683 3.94955 0.619447 -6.64874 4.2441 0.672059 -7.06545 4.47412 0.73917 -7.4791 4.67185 0.78432 -7.85472 4.86095 0.825856 -8.23762 5.0642 0.856824 -8.63707 5.27005 0.839971 -9.00781 5.52559 0.819185 -9.45875 5.78999 0.789228 -9.95241 6.01983 0.792541 -10.4853 6.18059 0.808441 -10.8791 6.36212 0.825402 -11.3253 6.57697 0.856718 -11.8618 6.7748 0.883023 -12.3436 6.96584 0.956671 -12.8639 7.11632 0.998041 -13.2714 7.30268 1.05024 -13.7965 7.44246 1.06324 -14.227 7.58162 1.06524 -14.6826 7.72772 1.04574 -15.158 7.87354 1.02185 -15.7077 7.94495 1.01451 -16.0399 8.0205 1.002 -16.3953 8.10349 0.992018 -16.7378 8.20911 0.964683 -17.1365 8.32378 0.894242 -17.5737 8.43518 0.809127 -18.0294 8.55278 0.715455 -18.5704 8.63896 0.635514 -19.0668 8.72132 0.562723 -19.543 8.82261 0.498683 -19.9802 8.93465 0.429792 -20.4509 9.04986 0.348199 -20.9331 9.14844 0.288831 -21.3942 9.27083 0.270168 -21.8253 9.40963 0.272128 -22.2904 9.53576 0.267946 -22.7757 9.61157 0.282309 -23.3239 9.67263 0.298892 -23.7206 9.75886 0.31538 -24.3023 9.86544 0.306117 -24.8512 9.938 0.288821 -25.3662 10.0004 0.263703 -25.8272 10.0721 0.240431 -26.3183 10.1578 0.213306 -26.8862 10.2269 0.181655 -27.3616 10.3017 0.146691 -27.8813 10.3539 0.111105 -28.3582 10.3188 0.0810507 -28.8817 10.2864 0.0549278 -29.3044 10.2383 0.0102643 -29.7286 10.2434 -0.068722 -30.2377 10.2519 -0.133991 -30.6871 10.2702 -0.170186 -31.2253 10.2775 -0.173589 -31.6336 10.2928 -0.167478 -32.164 10.2948 -0.129553 -32.5989 10.2706 -0.090959 -33.1353 10.2812 -0.0486323 -33.6476 10.2431 -0.0298472 -34.1324 10.2279 -0.00210929 -34.645 10.2331 0.00998591 -35.1699 10.1997 0.00274594 -35.6636 10.1451 0.00314402 -36.2092 10.1025 0.0236883 -36.7081 10.0928 0.05948 -37.086 10.121 0.0763946 -37.6487 10.1271 0.0960189 -38.1732 10.1272 0.137534 -38.6684 10.1016 0.177952 -39.1577 10.0494 0.269503 -39.7365 10.013 0.306395 -40.2244 10.0316 0.319805 -40.6823 10.0493 0.325472 -41.0975 10.0698 0.329001 -41.5778 10.0895 0.33078 -42.0644 10.1257 0.340361 -42.5771 10.1655 0.352189 -43.1109 10.2006 0.367141 -43.6442 10.2108 0.389558 -44.1356 10.2241 0.411529 -44.6642 10.2338 0.434099 -45.117 10.2399 0.447944 -45.6458 10.2455 0.462674 -46.1287 10.256 0.478582 -46.5936 10.2703 0.500151 -47.1653 10.2846 0.51963 -47.6504 10.3121 0.559781 -48.1529 10.3846 0.586161 -48.6933 10.4492 0.60909 -49.1664 10.4899 0.609481 -49.6191 10.5528 0.580412 -50.1496 10.6149 0.570113 -50.6785 10.6274 0.507697 -51.1845 10.6215 0.467389 -51.7155 10.5865 0.453844 -52.2205 10.6084 0.435308 -52.7806 10.6831 0.409288 -53.3205 10.7447 0.394328 -53.7517 10.7949 0.39577 -54.24 10.8672 0.392015 -54.8348 10.8851 0.347313 -55.3576 10.9297 0.359427 -55.8521 10.9658 0.372244 -56.3846 10.9621 0.374193 -56.9133 10.9472 0.409649 -57.3743 10.8843 0.425791 -57.8977 10.9128 0.449856 -58.3574 10.9052 0.480764 -58.9034 10.8971 0.509719 -59.4292 10.8923 0.532059 -59.8202 10.88 0.546072 -60.301 10.8776 0.559633 -60.7621 10.8402 0.581802 -61.3383 10.8407 0.598307 -61.7953 10.8253 0.630964 -62.332 10.784 0.63435 -62.8484 10.735 0.666737 -63.3598 10.6803 0.697485 -63.9012 10.6674 0.70615 -64.3786 10.6438 0.71686 -64.9169 10.6677 0.710438 -65.2935 10.6974 0.702508 -65.7627 10.7251 0.696403 -66.1998 10.7591 0.663138 -66.714 10.7595 0.643271 -67.2375 10.7431 0.612989 -67.7281 10.6783 0.590313 -68.2908 10.6165 0.566242 -68.8752 10.607 0.593358 -69.4441 10.5987 0.612616 -69.8793 10.575 0.65365 -70.4412 10.5199 0.711622 -70.9298 10.4612 0.795341 -71.4515 10.4175 0.85283 -71.8716 0.494581 0.0317302 -3.26217 1.02201 0.528744 -2.57311 1.55759 1.0903 -1.94239 2.07673 1.73861 -1.38545 2.58046 2.39613 -0.825154 3.15348 2.97736 -0.247386 3.74774 3.44464 0.407215 3.87358 3.53258 0.557367 0.924678 0.0982239 -3.54215 0.596381 1.03954 -3.4637 0.288151 1.99066 -3.44493 -0.00691215 2.94057 -3.34189 -0.254273 3.90741 -3.27835 -0.48793 4.82105 -3.21788 1.29639 0.176025 -3.77841 1.08277 -0.308085 -4.62694 0.878128 -0.859202 -5.43589 0.695101 -1.41994 -6.2434 0.512968 -1.98113 -7.0508 0.152184 -2.51282 -7.81705 -0.0580934 -3.01991 -8.6529 -0.0932757 -3.1018 -8.78974 1.6992 0.240815 -4.06029 1.97181 0.855197 -3.31988 2.19868 1.54765 -2.63502 2.46338 2.28876 -2.01801 2.70009 3.04215 -1.40452 2.95522 3.82209 -0.833033 3.17762 4.53184 -0.164604 3.27389 4.8242 0.0815969 2.05915 0.330958 -4.39042 2.6364 -0.423601 -4.07829 3.21775 -1.12168 -3.6603 3.76671 -1.8752 -3.29857 4.30954 -2.6294 -2.92907 4.96983 -3.28383 -2.56065 5.63012 -3.91896 -2.15988 5.63791 -3.92643 -2.15516 2.39098 0.419244 -4.70508 2.22667 -0.376554 -5.28793 2.02694 -1.16043 -5.87585 1.55515 -1.95286 -6.26246 1.13268 -2.68235 -6.80039 0.669898 -3.33888 -7.39604 0.164523 -4.00884 -7.93986 0.0609199 -4.169 -8.0734 2.78317 0.474596 -5.06349 2.95265 -0.50943 -5.11801 3.19875 -1.46594 -4.96144 3.37814 -2.43725 -4.80526 3.65529 -3.38933 -4.67591 3.96113 -4.33884 -4.60598 4.38617 -5.23282 -4.52599 3.10016 0.517932 -5.36049 2.74109 0.566365 -6.29254 2.40165 0.441858 -7.22489 2.13127 0.312983 -8.17898 1.82283 0.170112 -9.11943 1.5948 0.0338189 -10.0835 1.25338 0.105344 -11.0207 1.20647 0.116893 -11.1427 3.39788 0.555294 -5.73557 4.25413 0.0748744 -5.54574 5.10139 -0.389891 -5.28857 5.92029 -0.898703 -5.02302 6.69184 -1.51415 -4.86202 7.45597 -2.12896 -4.66678 7.94418 -2.489 -4.58663 3.66084 0.566629 -6.16683 4.3546 -0.136211 -6.32404 5.15536 -0.699406 -6.52799 5.90986 -1.32631 -6.72219 6.6109 -2.0238 -6.87073 7.32786 -2.71429 -6.96656 8.04007 -3.41261 -7.03804 8.50105 -3.83938 -7.21138 3.94955 0.619447 -6.64874 3.19796 0.990798 -7.19392 2.4531 1.34625 -7.75858 1.67943 1.72727 -8.26479 0.852328 2.0807 -8.70182 -0.0396435 2.44637 -8.96767 -0.939574 2.80703 -9.21272 -1.30899 2.94661 -9.31313 4.2441 0.672059 -7.06545 4.86116 -0.046894 -6.74553 5.43979 -0.761647 -6.35271 6.02367 -1.48854 -5.99115 6.65485 -2.23231 -5.77112 7.26531 -3.01728 -5.66546 7.92193 -3.76515 -5.5678 7.94769 -3.79439 -5.56405 4.47412 0.73917 -7.4791 3.70301 1.28389 -7.80876 2.91971 1.8011 -8.15363 2.10198 2.28066 -8.47197 1.26349 2.75288 -8.74388 0.420676 3.22247 -9.00686 -0.0881903 3.52531 -9.19093 4.67185 0.78432 -7.85472 5.12746 1.66016 -7.69561 5.50769 2.57145 -7.53758 5.86032 3.46961 -7.27497 6.13471 4.38164 -6.97014 6.47688 5.25749 -6.79219 4.86095 0.825856 -8.23762 5.77301 0.990216 -7.86195 6.68342 1.11847 -7.46861 7.57053 1.23328 -7.02157 8.4105 1.34542 -6.49065 9.2595 1.46551 -5.97608 10.075 1.58235 -5.46751 5.0642 0.856824 -8.63707 5.74518 0.185669 -8.34414 6.44329 -0.456938 -8.02838 7.14585 -1.10313 -7.73031 7.8459 -1.75697 -7.44321 8.5727 -2.37249 -7.13841 8.9256 -2.74986 -6.92383 5.27005 0.839971 -9.00781 5.32601 -0.123915 -8.74744 5.35631 -1.09971 -8.53087 5.39979 -2.09268 -8.42075 5.22039 -3.05807 -8.23146 5.03733 -4.02256 -8.04107 4.88807 -4.66552 -7.87891 5.52559 0.819185 -9.45875 5.97635 1.69528 -9.28768 6.47168 2.55469 -9.16091 6.97352 3.41379 -9.06034 7.34256 4.33797 -8.96189 7.66617 5.25783 -8.74025 8.00877 6.16953 -8.51347 8.02838 6.21967 -8.50046 5.78999 0.789228 -9.95241 6.70327 0.819596 -9.55981 7.67456 0.828752 -9.32211 8.63536 0.697728 -9.07775 9.57267 0.506083 -8.7867 10.5068 0.342886 -8.46927 11.2666 0.203239 -8.21154 6.01983 0.792541 -10.4853 6.87295 0.403742 -10.1374 7.719 0.0078897 -9.78033 8.5695 -0.380448 -9.42561 9.44159 -0.674462 -9.03443 10.3499 -0.870368 -8.66478 11.0986 -1.01951 -8.35266 6.18059 0.808441 -10.8791 6.00534 -0.141139 -11.1391 5.80332 -1.06821 -11.4549 5.57355 -1.9891 -11.7698 5.37878 -2.90722 -12.1149 5.13804 -3.81474 -12.4591 5.04815 -4.12539 -12.5749 6.36212 0.825402 -11.3253 6.86485 1.68955 -11.3025 7.33323 2.57303 -11.2938 7.91767 3.3843 -11.3101 8.42827 4.23046 -11.1574 8.88407 5.10158 -10.9747 9.17692 5.70218 -10.8696 6.57697 0.856718 -11.8618 5.62083 0.999939 -12.1173 4.6756 1.17219 -12.3946 3.7422 1.43123 -12.6429 2.80222 1.66883 -12.8878 1.84092 1.82499 -13.1148 1.25054 1.91594 -13.2529 6.7748 0.883023 -12.3436 6.01745 0.469451 -12.849 5.26177 0.0562434 -13.3571 4.49825 -0.236174 -13.9329 3.78647 -0.615752 -14.5239 3.10424 -1.09789 -15.0735 2.40277 -1.53114 -15.6394 2.34633 -1.57134 -15.6909 6.96584 0.956671 -12.8639 6.95987 -0.0431626 -12.8812 6.95885 -1.04315 -12.8771 7.0128 -2.04109 -12.9119 7.25483 -3.00157 -13.0494 7.40263 -3.97922 -13.1988 7.5345 -4.67481 -13.267 7.11632 0.998041 -13.2714 7.31007 1.96584 -13.1107 7.51623 2.94246 -13.0498 7.65337 3.92528 -12.9262 7.76253 4.91714 -12.8608 7.84006 5.91171 -12.7913 7.88656 6.54926 -12.8141 7.30268 1.05024 -13.7965 7.14237 2.03716 -13.8136 6.97522 3.01174 -13.9627 6.8104 3.98787 -14.1042 6.62129 4.95866 -14.2519 6.42738 5.93102 -14.382 6.32631 6.47578 -14.4276 7.44246 1.06324 -14.227 7.04496 0.189587 -14.5076 6.61868 -0.666855 -14.7988 6.24637 -1.53908 -15.116 5.88033 -2.42769 -15.3923 5.47794 -3.21706 -15.6742 7.58162 1.06524 -14.6826 7.97898 0.216684 -14.3333 8.42066 -0.616726 -14.0011 8.86376 -1.39226 -13.5514 9.22215 -2.18559 -13.0593 9.63996 -2.93766 -12.5496 9.6947 -3.04303 -12.4754 7.72772 1.04574 -15.158 8.30152 1.84523 -14.9803 8.88278 2.62428 -14.7453 9.46147 3.40467 -14.5084 10.0376 4.18959 -14.2805 10.6407 4.97822 -14.4004 10.9561 5.36482 -14.4557 7.87354 1.02185 -15.7077 7.3596 0.167777 -15.7878 6.84332 -0.685234 -15.8641 6.24545 -1.48585 -15.8246 5.7466 -2.34678 -15.7248 5.2421 -3.205 -15.6303 5.02657 -3.54308 -15.6091 7.94495 1.01451 -16.0399 7.89545 0.0157391 -16.0365 7.7907 -0.977454 -16.0875 7.74486 -1.97629 -16.0726 7.69344 -2.97478 -16.0534 7.70964 -3.97465 -16.0549 7.71788 -4.24877 -16.0562 8.0205 1.002 -16.3953 7.06481 0.838861 -16.6403 6.13232 0.630406 -16.9353 5.16033 0.516411 -17.1408 4.17204 0.458903 -17.2822 3.19718 0.577303 -17.4709 2.9482 0.618033 -17.5181 8.10349 0.992018 -16.7378 7.25886 1.43213 -17.0426 6.41727 1.85908 -17.3735 5.58787 2.30257 -17.7132 4.81566 2.77887 -18.1337 4.32742 3.01565 -18.3836 8.20911 0.964683 -17.1365 8.36107 -0.023697 -17.1328 8.49184 -1.01306 -17.0692 8.64393 -1.99076 -16.9243 8.80598 -2.96758 -16.7844 8.90155 -3.75069 -16.6945 8.32378 0.894242 -17.5737 9.24489 0.575364 -17.3504 10.1612 0.359171 -17.0132 11.0354 0.0746672 -16.6199 11.925 -0.121289 -16.2072 12.7732 -0.208036 -15.69 8.43518 0.809127 -18.0294 9.39489 1.06775 -17.9195 10.3054 1.37476 -17.6425 11.1805 1.84058 -17.5115 12.0382 2.32986 -17.3534 12.8959 2.819 -17.1951 12.9487 2.84839 -17.1842 8.55278 0.715455 -18.5704 7.698 1.11932 -18.8964 6.86063 1.49825 -19.2904 6.02429 1.85679 -19.7051 5.23211 2.2022 -20.2082 4.41547 2.60035 -20.6261 4.36461 2.62522 -20.6522 8.63896 0.635514 -19.0668 8.9265 1.59327 -19.0723 9.09991 2.57281 -19.1744 9.24915 3.55942 -19.2402 9.43685 4.54097 -19.2036 9.537 5.13223 -19.1852 8.72132 0.562723 -19.543 8.05533 1.19239 -19.943 7.45792 1.86816 -20.3748 6.8501 2.5269 -20.8182 6.31063 3.25184 -21.2465 5.87683 3.97887 -21.7726 8.82261 0.498683 -19.9802 8.52863 -0.456921 -20.0002 8.3228 -1.43401 -19.9461 8.12923 -2.41165 -19.864 7.93865 -3.38832 -19.963 7.85732 -3.89513 -20.0021 8.93465 0.429792 -20.4509 8.3225 1.20207 -20.6207 7.66313 1.93925 -20.7684 6.98796 2.66035 -20.9238 6.30635 3.37263 -21.0913 5.91275 3.89197 -21.1506 9.04986 0.348199 -20.9331 8.6539 -0.569689 -20.9066 8.26369 -1.45117 -21.1725 7.87888 -2.3352 -21.4379 7.56713 -3.25155 -21.6891 7.37964 -3.80326 -21.8214 9.14844 0.288831 -21.3942 9.90641 -0.278247 -21.0719 10.5781 -0.929773 -20.7192 11.2646 -1.57658 -20.3871 11.9643 -2.20771 -20.0522 12.5034 -2.65414 -19.8135 9.27083 0.270168 -21.8253 9.18505 -0.707104 -21.6315 9.09267 -1.68105 -21.4379 9.00911 -2.65919 -21.2475 8.94134 -3.64033 -21.0665 8.91974 -4.57833 -20.9905 9.40963 0.272128 -22.2904 10.1925 0.890051 -22.3627 10.8879 1.59554 -22.4998 11.6382 2.18969 -22.7897 12.3957 2.78682 -23.0536 12.8871 3.17176 -23.2234 9.53576 0.267946 -22.7757 9.91117 1.19451 -22.7989 10.3018 2.11342 -22.8542 10.6767 3.03846 -22.9151 11.0765 3.95396 -22.9601 11.4594 4.87771 -22.953 11.4875 4.9453 -22.9524 9.61157 0.282309 -23.3239 10.3789 -0.358184 -23.3549 11.239 -0.868066 -23.3721 12.087 -1.39673 -23.4092 12.8563 -2.03555 -23.4046 13.3888 -2.44365 -23.3709 9.67263 0.298892 -23.7206 10.1698 1.15988 -23.6134 10.5566 2.07811 -23.5281 10.9856 2.98014 -23.4803 11.3875 3.89056 -23.382 11.5139 4.21238 -23.3485 9.75886 0.31538 -24.3023 10.6457 -0.12914 -24.1759 11.5278 -0.599809 -24.1586 12.3592 -1.14535 -24.0529 13.2042 -1.62671 -23.9855 9.86544 0.306117 -24.8512 9.14555 0.995002 -24.9361 8.37108 1.62299 -25.0124 7.66285 2.32386 -25.0972 6.93894 3.00723 -25.1918 6.55867 3.4117 -25.29 9.938 0.288821 -25.3662 9.02162 -0.0823505 -25.5162 8.11716 -0.482882 -25.6629 7.22253 -0.900809 -25.8209 6.34376 -1.3632 -25.9391 6.26686 -1.40425 -25.9487 10.0004 0.263703 -25.8272 10.2036 1.24148 -25.7754 10.4138 2.21696 -25.7104 10.5544 3.19992 -25.592 10.6551 4.18979 -25.4919 10.6304 4.68676 -25.3484 10.0721 0.240431 -26.3183 10.7913 0.865177 -26.6224 11.5836 1.39834 -26.9188 12.3928 1.92896 -27.1713 13.1912 2.31276 -27.4244 10.1578 0.213306 -26.8862 10.9114 0.870272 -26.9111 11.6733 1.51769 -26.9297 12.4267 2.17132 -27.0012 13.2321 2.76313 -27.0349 13.3086 2.8184 -27.0408 10.2269 0.181655 -27.3616 11.1604 0.486228 -27.5508 12.0939 0.790676 -27.74 13.0198 1.11133 -27.94 13.4988 1.2872 -28.0282 10.3017 0.146691 -27.8813 9.44741 -0.335837 -28.0746 8.59948 -0.841213 -28.2347 7.73706 -1.33615 -28.3408 6.88616 -1.84011 -28.4891 6.84328 -1.86429 -28.4947 10.3539 0.111105 -28.3582 10.2856 1.10869 -28.3453 10.2038 2.10518 -28.3628 10.1245 3.09371 -28.4913 10.0421 3.6504 -28.5314 10.3188 0.0810507 -28.8817 11.0432 -0.59861 -28.9973 11.8091 -1.23994 -29.0425 12.5772 -1.87882 -29.0856 12.9318 -2.17587 -29.1024 10.2864 0.0549278 -29.3044 10.4615 1.03927 -29.284 10.5927 2.02882 -29.2242 10.7351 3.01756 -29.1781 10.7689 3.26515 -29.171 10.2383 0.0102643 -29.7286 9.48875 0.670897 -29.7707 8.70358 1.28617 -29.7004 7.94075 1.92559 -29.6043 7.43966 2.40737 -29.5686 10.2434 -0.068722 -30.2377 9.47897 0.57084 -30.3189 8.69802 1.19031 -30.3988 7.91686 1.80932 -30.4802 7.24366 2.29414 -30.6031 10.2519 -0.133991 -30.6871 10.1224 -1.05463 -30.3188 10.0817 -1.97886 -29.9391 9.95256 -2.91429 -29.6101 9.85759 -3.53965 -29.3854 10.2702 -0.170186 -31.2253 11.0244 -0.778646 -31.4721 11.8471 -1.30202 -31.6939 12.6397 -1.90055 -31.8103 13.1414 -2.30648 -31.917 10.2775 -0.173589 -31.6336 9.59873 0.541587 -31.4668 8.82113 1.15542 -31.3306 8.00994 1.57791 -30.9263 7.56543 1.90566 -30.6393 10.2928 -0.167478 -32.164 9.73323 -0.969813 -32.3717 9.13485 -1.75795 -32.5159 8.50809 -2.52281 -32.6647 8.32881 -2.75225 -32.7103 10.2948 -0.129553 -32.5989 10.9767 0.599611 -32.5412 11.6418 1.34569 -32.5084 12.1721 1.92477 -32.4507 10.2706 -0.090959 -33.1353 9.70247 0.726413 -33.2306 8.97627 1.40751 -33.3242 8.23095 2.06925 -33.4053 8.05073 2.22842 -33.4267 10.2812 -0.0486323 -33.6476 9.50353 0.522296 -33.9106 8.72824 1.11903 -34.1176 7.90246 1.64135 -34.3304 7.49215 1.90879 -34.4311 10.2431 -0.0298472 -34.1324 9.7253 -0.87727 -34.2497 9.19875 -1.72644 -34.2904 8.66131 -2.56634 -34.3661 8.65786 -2.57175 -34.3666 10.2279 -0.00210929 -34.645 9.26967 -0.248218 -34.7905 8.33684 -0.563832 -34.9643 7.81676 -0.722302 -35.0229 10.2331 0.00998591 -35.1699 9.39515 -0.524086 -35.058 8.55453 -1.05422 -34.947 7.8116 -1.51006 -34.9131 10.1997 0.00274594 -35.6636 9.68481 0.838009 -35.8566 9.16623 1.66887 -36.0584 8.80488 2.16719 -36.1446 10.1451 0.00314402 -36.2092 10.2269 -0.993305 -36.1894 10.2989 -1.9899 -36.1492 10.356 -2.87904 -36.0943 10.1025 0.0236883 -36.7081 9.44975 -0.709015 -36.9006 8.78153 -1.42139 -37.1151 8.31887 -1.8605 -37.2452 10.0928 0.05948 -37.086 9.22816 -0.378082 -36.8392 8.38243 -0.870576 -36.6338 7.84768 -1.15972 -36.5101 10.121 0.0763946 -37.6487 11.103 0.0979288 -37.8363 12.0977 0.11898 -37.9368 12.7886 0.113001 -38.0468 10.1271 0.0960189 -38.1732 10.7067 -0.717535 -38.2193 11.288 -1.53111 -38.2356 11.4755 -1.79096 -38.2434 10.1272 0.137534 -38.6684 10.483 -0.792078 -38.5721 10.8833 -1.70263 -38.4691 10.9979 -1.97859 -38.4463 10.1016 0.177952 -39.1577 9.13389 -0.0721189 -39.1253 8.16405 -0.298206 -39.0342 7.97764 -0.336898 -39.0205 10.0494 0.269503 -39.7365 9.53267 1.12135 -39.8225 9.18834 1.80551 -39.8161 10.013 0.306395 -40.2244 10.7883 0.916378 -40.3885 11.5721 1.51678 -40.5469 11.6719 1.59772 -40.5714 10.0316 0.319805 -40.6823 9.80751 1.29247 -40.6213 9.44963 2.16372 -40.506 10.0493 0.325472 -41.0975 10.3771 1.25673 -40.9385 10.6474 1.99114 -40.817 10.0698 0.329001 -41.5778 10.5919 1.1818 -41.566 10.9071 1.70182 -41.5853 10.0895 0.33078 -42.0644 10.825 -0.346681 -42.0555 11.4007 -0.863441 -42.0712 10.1257 0.340361 -42.5771 10.9372 -0.242294 -42.6223 11.1648 -0.414764 -42.6329 10.1655 0.352189 -43.1109 10.1727 1.34135 -43.2575 10.1524 1.59101 -43.291 10.2006 0.367141 -43.6442 11.0553 -0.0351231 -43.6401 10.2108 0.389558 -44.1356 9.28484 0.0141969 -44.0936 9.24549 -0.00212782 -44.0921 10.2241 0.411529 -44.6642 10.5722 -0.478896 -44.7075 10.2338 0.434099 -45.117 10.9869 0.910786 -45.1574 10.2399 0.447944 -45.6458 10.8567 0.683458 -45.649 10.2455 0.462674 -46.1287 10.4232 0.992228 -46.2328 10.256 0.478582 -46.5936 10.6248 0.326238 -46.522 10.2703 0.500151 -47.1653 10.6116 0.377662 -47.188 10.2846 0.51963 -47.6504 10.2655 0.283754 -47.6975 10.3121 0.559781 -48.1529 10.2448 0.504065 -48.1654 0 0 -3 -0.264715 0.340285 -3.27284 -0.501267 0.653302 -3.5485 -0.809898 1.03131 -3.90178 -1.03101 1.38844 -4.19378 -1.19591 1.74673 -4.50265 -1.35011 2.07998 -4.77666 -1.53078 2.37171 -5.03501 -1.743 2.6987 -5.32326 -1.9865 3.0826 -5.66057 -2.21191 3.44934 -6.01266 -2.4141 3.75647 -6.36986 -2.60979 4.05917 -6.71708 -2.79653 4.36141 -7.15123 -2.99342 4.60998 -7.54035 -3.19172 4.84147 -7.91488 -3.35405 5.0242 -8.25487 -3.53322 5.23228 -8.63738 -3.7455 5.46575 -9.12314 -3.93516 5.68196 -9.58527 -4.095 5.8376 -9.96932 -4.25728 6.01134 -10.4136 -4.40115 6.1955 -10.8305 -4.58331 6.39604 -11.2979 -4.75905 6.60052 -11.7502 -4.90153 6.78351 -12.1824 -5.00214 6.8794 -12.6767 -5.09531 7.00296 -13.2115 -5.19155 7.12944 -13.7332 -5.23454 7.26457 -14.2275 -5.24038 7.39916 -14.6995 -5.25184 7.52462 -15.2009 -5.26011 7.61879 -15.5696 -5.27405 7.68895 -16.1041 -5.29233 7.76382 -16.7009 -5.30677 7.82814 -17.2042 -5.32712 7.88417 -17.7798 -5.32309 7.94962 -18.2825 -5.31609 7.97505 -18.7494 -5.28837 7.96223 -19.3027 -5.29335 7.93137 -19.7534 -5.30062 7.91979 -20.2202 -5.29042 7.90859 -20.7054 -5.25138 7.88187 -21.2141 -5.22074 7.86262 -21.6601 -5.2173 7.88472 -22.1632 -5.23018 7.88531 -22.5844 -5.26834 7.89577 -23.161 -5.30328 7.9005 -23.5221 -5.37639 7.89786 -23.9982 -5.41076 7.92761 -24.4253 -5.464 7.93428 -24.9433 -5.50953 7.93924 -25.3812 -5.5739 7.93125 -25.8646 -5.72197 7.99901 -26.3542 -5.85466 8.04969 -26.8223 -5.94676 8.09948 -27.3535 -6.00037 8.17103 -27.8584 -6.04559 8.21677 -28.4614 -6.07529 8.27715 -28.9908 -6.08571 8.29894 -29.4912 -6.08612 8.33828 -29.9019 -6.09508 8.36187 -30.3961 -6.07091 8.40792 -30.9646 -6.04828 8.44703 -31.4485 -6.02098 8.48598 -31.9475 -5.99927 8.51315 -32.4616 -5.9868 8.53244 -33.0185 -5.98246 8.5