<?xml version="1.0"?><VTKFile type="PolyData" version="0.1" byte_order="LittleEndian">
<PolyData>
<Piece NumberOfLines="1" NumberOfPoints="49">
<PointData Scalars=" PointData">
<DataArray type="Float32" Name="time" NumberOfComponents="1" format="ascii" >
0 0.13736 0.264429 0.374476 0.496731 0.619433 0.73473 0.867245 0.975764 1.0954 1.22151 1.36267 1.4913 1.61142 1.7189 1.82712 1.94066 2.04811 2.17971 2.32233 2.47027 2.57903 2.70241 2.85094 2.98507 3.12924 3.24198 3.3869 3.50444 3.62834 3.75806 3.90677 3.99574 4.09109 4.18368 4.29242 4.41301 4.53894 4.68763 4.823 4.95304 5.07389 5.20444 5.33899 5.46653 5.58717 5.71799 5.85343 6 
</DataArray>

</PointData>
<CellData Scalars=" CellData">
<DataArray type="Float32" Name="radius" NumberOfComponents="1" format="ascii" >
0.147243 
</DataArray>
<DataArray type="Float32" Name="subType" NumberOfComponents="1" format="ascii" >
1 
</DataArray>
<DataArray type="Float32" Name="creationTime" NumberOfComponents="1" format="ascii" >
0 
</DataArray>

</CellData>
<Points>
<DataArray type="Float32" Name="Coordinates" NumberOfComponents="3" format="ascii" >
0 0 -3 0.494581 0.0317302 -3.26217 0.924678 0.0982239 -3.54215 1.29639 0.176025 -3.77841 1.6992 0.240815 -4.06029 2.05915 0.330958 -4.39042 2.39098 0.419244 -4.70508 2.78317 0.474596 -5.06349 3.10016 0.517932 -5.36049 3.39788 0.555294 -5.73557 3.66084 0.566629 -6.16683 3.94955 0.619447 -6.64874 4.2441 0.672059 -7.06545 4.47412 0.73917 -7.4791 4.67185 0.78432 -7.85472 4.86095 0.825856 -8.23762 5.0642 0.856824 -8.63707 5.27005 0.839971 -9.00781 5.52559 0.819185 -9.45875 5.78999 0.789228 -9.95241 6.01983 0.792541 -10.4853 6.18059 0.808441 -10.8791 6.36212 0.825402 -11.3253 6.57697 0.856718 -11.8618 6.7748 0.883023 -12.3436 6.96584 0.956671 -12.8639 7.11632 0.998041 -13.2714 7.30268 1.05024 -13.7965 7.44246 1.06324 -14.227 7.58162 1.06524 -14.6826 7.72772 1.04574 -15.158 7.87354 1.02185 -15.7077 7.94495 1.01451 -16.0399 8.0205 1.002 -16.3953 8.10349 0.992018 -16.7378 8.20911 0.964683 -17.1365 8.32378 0.894242 -17.5737 8.43518 0.809127 -18.0294 8.55278 0.715455 -18.5704 8.63896 0.635514 -19.0668 8.72132 0.562723 -19.543 8.82261 0.498683 -19.9802 8.93465 0.429792 -20.4509 9.04986 0.348199 -20.9331 9.14844 0.288831 -21.3942 9.27083 0.270168 -21.8253 9.40963 0.272128 -22.2904 9.53576 0.267946 -22.7757 9.64998 0.275088 -23.3047 
</DataArray>
</Points>
<Lines>
<DataArray type="Int32" Name="connectivity" NumberOfComponents="1" format="ascii" >
0 1 2 3 4 5 6 7 8 9 10 11 12 13 14 15 16 17 18 19 20 21 22 23 24 25 26 27 28 29 30 31 32 33 34 35 36 37 38 39 40 41 42 43 44 45 46 47 48 
</DataArray>
<DataArray type="Int32" Name="offsets" NumberOfComponents="1" format="ascii" >
49 
</DataArray>

</Lines>
</Piece>
</PolyData>
</VTKFile>
