<?xml version="1.0"?><VTKFile type="PolyData" version="0.1" byte_order="LittleEndian">
<PolyData>
<Piece NumberOfLines="64" NumberOfPoints="357">
<PointData Scalars=" PointData">
<DataArray type="Float32" Name="time" NumberOfComponents="1" format="ascii" >
0 2.94076 3.47928 4.02066 4.56495 5.11218 5.66237 6.21556 6.77179 7.33108 7.89348 8.459 9.0277 9.59961 10.1748 10.7532 11.3349 11.92 12.5085 13.1004 13.6958 14.2948 14.8972 15.5033 16.113 16.7264 17.3435 17.9645 18.5892 19.2178 19.8503 20.4868 21.1273 21.7719 22.4206 23.0735 23.7306 24.392 25.0577 25.7278 26.4024 27.0815 27.7652 28 10.3993 13.4301 16.7607 20.457 24.6091 28 10.979 11.5031 12.0321 12.566 13.1049 13.6489 14.1982 14.7527 15.3127 15.8781 16.4493 17.0261 17.6089 18.1976 18.7924 19.3934 20.0009 20.6148 21.2354 21.8627 22.497 23.1384 23.7871 24.4432 25.1068 25.7783 26.4577 27.1452 27.8411 28 18.4282 21.4985 24.9736 28 19.0254 22.1005 25.5933 28 19.6289 22.6788 26.0781 28 20.2388 23.3045 26.762 28 20.8553 23.8888 27.2286 28 21.4785 24.5085 27.8362 28 22.1086 25.1681 28 22.7456 25.8343 28 23.3898 26.4331 28 24.0413 27.0948 28 24.7003 27.7343 28 25.367 28 26.0415 28 26.7241 28 27.4148 28 11.5621 14.6023 17.9666 21.7323 26.0084 28 12.1485 15.2051 18.6292 22.5211 27.0293 28 12.7383 13.2624 13.7914 14.3253 14.8642 15.4082 15.9574 16.512 17.0719 17.6374 18.2085 18.7854 19.3681 19.9568 20.5517 21.1527 21.7601 22.3741 22.9946 23.622 24.2563 24.8977 25.5464 26.2024 26.8661 27.5376 28 20.1874 23.2316 26.6098 28 20.7847 23.8315 27.2196 28 21.3882 24.4394 27.8433 28 21.9981 25.071 28 22.6146 25.6489 28 23.2378 26.3046 28 23.8678 26.9162 28 24.5049 27.5635 28 25.1491 28 25.8006 28 26.4596 28 27.1263 28 27.8008 28 13.3316 16.3959 19.8483 23.8016 28 13.9283 16.9705 20.3418 24.122 28 14.5286 17.5979 21.0689 25.0628 28 15.1325 18.1941 21.6366 25.5682 28 15.74 18.7894 22.1867 26.0218 28 16.3511 19.4206 22.8923 26.8878 28 16.966 20.0326 23.4936 27.4656 28 17.5846 20.6255 23.9921 27.7627 28 18.2069 18.7313 19.2608 19.7957 20.336 20.8818 21.4333 21.9906 22.5538 23.1231 23.6985 24.2802 24.8683 25.463 26.0644 26.6727 27.2881 27.9107 28 25.6961 28 26.3002 28 26.9112 28 27.5293 28 18.8332 21.8952 25.3392 28 19.4633 19.9872 20.5154 21.0481 21.5853 22.127 22.6734 23.2245 23.7805 24.3413 24.9072 25.4781 26.0542 26.6356 27.2223 27.8145 28 26.8631 28 27.4519 28 20.0974 20.6212 21.1494 21.682 22.219 22.7606 23.3068 23.8577 24.4133 24.9738 25.5393 26.1098 26.6854 27.2662 27.8524 28 27.4935 28 20.7354 23.7988 27.2476 28 21.3775 24.4373 27.873 28 22.0237 25.0978 28 22.674 25.7037 28 23.3285 23.8527 24.3818 24.9159 25.4551 25.9996 26.5494 27.1045 27.6653 28 23.9873 27.0486 28 24.6503 27.6947 28 25.3178 25.8418 26.3704 26.9038 27.4419 27.9849 28 25.9896 28 26.666 28 27.3468 27.8708 28 
</DataArray>

</PointData>
<CellData Scalars=" CellData">
<DataArray type="Float32" Name="radius" NumberOfComponents="1" format="ascii" >
0.0115 0.008 0.0115 0.008 0.008 0.008 0.008 0.008 0.008 0.008 0.008 0.008 0.008 0.008 0.008 0.008 0.008 0.008 0.008 0.008 0.0115 0.008 0.008 0.008 0.008 0.008 0.008 0.008 0.008 0.008 0.008 0.008 0.008 0.008 0.008 0.008 0.008 0.008 0.008 0.008 0.008 0.008 0.0115 0.008 0.008 0.008 0.008 0.008 0.0115 0.008 0.008 0.0115 0.008 0.008 0.008 0.008 0.008 0.0115 0.008 0.008 0.0115 0.008 0.008 0.0115 
</DataArray>
<DataArray type="Float32" Name="subType" NumberOfComponents="1" format="ascii" >
1 3 2 3 3 3 3 3 3 3 3 3 3 3 3 3 3 3 3 3 2 3 3 3 3 3 3 3 3 3 3 3 3 3 3 3 3 3 3 3 3 3 2 3 3 3 3 3 2 3 3 2 3 3 3 3 3 2 3 3 2 3 3 2 
</DataArray>
<DataArray type="Float32" Name="creationTime" NumberOfComponents="1" format="ascii" >
0 10.3993 10.979 18.4282 19.0254 19.6289 20.2388 20.8553 21.4785 22.1086 22.7456 23.3898 24.0413 24.7003 25.367 26.0415 26.7241 27.4148 11.5621 12.1485 12.7383 20.1874 20.7847 21.3882 21.9981 22.6146 23.2378 23.8678 24.5049 25.1491 25.8006 26.4596 27.1263 27.8008 13.3316 13.9283 14.5286 15.1325 15.74 16.3511 16.966 17.5846 18.2069 25.6961 26.3002 26.9112 27.5293 18.8332 19.4633 26.8631 27.4519 20.0974 27.4935 20.7354 21.3775 22.0237 22.674 23.3285 23.9873 24.6503 25.3178 25.9896 26.666 27.3468 
</DataArray>

</CellData>
<Points>
<DataArray type="Float32" Name="Coordinates" NumberOfComponents="3" format="ascii" >
0 0 -3 0.0152795 -0.0126528 -3.9998 0.0171868 -0.00640123 -4.17968 0.0204128 -0.00394854 -4.35964 0.0244813 0.00264401 -4.53947 0.0241452 0.0144449 -4.71908 0.0213742 0.0159159 -4.89906 0.00929569 0.0124199 -5.07862 -0.00185311 0.00957674 -5.25825 -0.0109642 0.00644542 -5.43799 -0.018661 0.00459279 -5.61782 -0.0260963 0.00412142 -5.79766 -0.0319507 0.00833464 -5.97752 -0.0376868 0.0120558 -6.15739 -0.0424502 0.0180742 -6.33722 -0.0466156 0.0228994 -6.51711 -0.0520426 0.0271658 -6.69698 -0.056191 0.0309799 -6.87689 -0.0571001 0.0335539 -7.05687 -0.0645326 0.0364519 -7.23669 -0.0716371 0.0382731 -7.41654 -0.0767291 0.0440157 -7.59638 -0.0820023 0.0497068 -7.77621 -0.0837707 0.0612495 -7.95583 -0.0856986 0.0726471 -8.13546 -0.0857796 0.0821652 -8.31521 -0.0859959 0.0916508 -8.49496 -0.0924143 0.101064 -8.6746 -0.0975808 0.100598 -8.85452 -0.0927702 0.104371 -9.03442 -0.0878628 0.109007 -9.21429 -0.101773 0.126219 -9.39293 -0.119032 0.144443 -9.57117 -0.135669 0.159596 -9.74976 -0.1611 0.171104 -9.92758 -0.177573 0.184016 -10.1064 -0.192649 0.196284 -10.2853 -0.204484 0.208111 -10.4645 -0.216342 0.221257 -10.6437 -0.22707 0.234198 -10.8229 -0.237066 0.247508 -11.0021 -0.242439 0.266349 -11.181 -0.246336 0.28423 -11.3601 -0.248922 0.289933 -11.4213 0.0152795 -0.0126528 -3.9998 0.92302 -0.199725 -4.37532 1.74152 0.0186038 -4.90672 2.63516 0.168191 -5.32985 3.46447 0.543439 -5.74389 4.11917 0.748241 -5.9937 0.0171868 -0.00640123 -4.17968 -0.135598 0.0627491 -4.24507 -0.288706 0.134927 -4.30629 -0.438049 0.209237 -4.37393 -0.599588 0.259726 -4.43521 -0.759702 0.316955 -4.49428 -0.916087 0.394668 -4.53791 -1.07035 0.473452 -4.58687 -1.233 0.514379 -4.65221 -1.39545 0.54445 -4.72367 -1.55916 0.569289 -4.79426 -1.71554 0.629538 -4.85995 -1.8716 0.691098 -4.92518 -2.02675 0.756024 -4.98931 -2.18081 0.818084 -5.05869 -2.33698 0.876398 -5.1266 -2.49912 0.929339 -5.18411 -2.67014 0.948959 -5.23672 -2.84155 0.95793 -5.29092 -3.01688 0.962169 -5.33144 -3.18524 0.969773 -5.39465 -3.35222 0.986 -5.45988 -3.51646 1.01249 -5.52861 -3.67723 1.04465 -5.6029 -3.84206 1.05679 -5.6742 -4.00175 1.08077 -5.75371 -4.16279 1.10441 -5.83058 -4.32377 1.1262 -5.90811 -4.4843 1.14104 -5.98818 -4.51977 1.14438 -6.00803 0.0171868 -0.00640123 -4.17968 -0.595234 0.00754134 -3.38928 -1.12506 0.459293 -2.6715 -1.47783 0.850688 -2.11019 -0.135598 0.0627491 -4.24507 -0.734281 -0.692489 -4.51189 -1.38374 -1.4092 -4.76591 -1.76773 -1.86991 -4.89849 -0.288706 0.134927 -4.30629 -0.529005 -0.421504 -5.10168 -0.634716 -0.83731 -6.00497 -0.523148 -1.08128 -6.44661 -0.438049 0.209237 -4.37393 -0.549244 -0.144019 -5.30282 -0.664599 -0.495033 -6.23206 -0.679771 -0.579679 -6.54873 -0.599588 0.259726 -4.43521 -1.16864 -0.516127 -4.70766 -1.74931 -1.02548 -5.34279 -1.92457 -1.05828 -5.46643 -0.759702 0.316955 -4.49428 -0.853218 1.11468 -5.09 -0.71961 1.89945 -5.69522 -0.712558 1.93603 -5.72346 -0.916087 0.394668 -4.53791 -0.862635 1.27872 -4.07359 -0.815585 1.99803 -3.65562 -1.07035 0.473452 -4.58687 -0.979314 1.11522 -5.34835 -0.989924 1.39698 -5.90994 -1.233 0.514379 -4.65221 -1.50678 -0.130099 -5.36614 -1.62572 -0.512245 -5.62713 -1.39545 0.54445 -4.72367 -2.06793 0.614833 -3.98691 -2.29467 0.631808 -3.82898 -1.55916 0.569289 -4.79426 -1.99689 -0.327307 -4.72713 -2.03267 -0.402291 -4.72177 -1.71554 0.629538 -4.85995 -1.46337 0.977819 -5.61965 -1.8716 0.691098 -4.92518 -2.31312 0.619664 -4.44827 -2.02675 0.756024 -4.98931 -2.29995 0.937345 -4.70976 -2.18081 0.818084 -5.05869 -2.14676 0.987904 -5.15832 0.0204128 -0.00394854 -4.35964 -0.894767 -0.0977268 -4.75162 -1.78419 -0.427712 -5.06791 -2.77023 -0.593451 -5.08407 -3.71112 -0.916615 -4.98265 -4.13257 -0.919512 -4.97587 0.0244813 0.00264401 -4.53947 -0.247025 -0.9587 -4.58532 -0.720058 -1.75329 -4.96593 -0.958594 -2.24582 -5.8029 -1.19642 -2.71444 -6.65368 -1.22012 -2.83397 -6.80642 0.0241452 0.0144449 -4.71908 0.186474 -0.0356486 -4.77858 0.349075 -0.0847516 -4.83816 0.503991 -0.153944 -4.89827 0.659617 -0.218305 -4.96182 0.810356 -0.286088 -5.03312 0.97154 -0.326978 -5.10202 1.133 -0.359229 -5.17477 1.29513 -0.379988 -5.25015 1.45689 -0.414188 -5.32131 1.62645 -0.440159 -5.37585 1.79708 -0.459195 -5.42991 1.96819 -0.477075 -5.48285 2.14402 -0.481886 -5.52105 2.31804 -0.455247 -5.55856 2.48619 -0.448766 -5.62246 2.65096 -0.433233 -5.69324 2.82275 -0.414745 -5.74371 2.99157 -0.400027 -5.80439 3.15385 -0.397777 -5.88224 3.31263 -0.405916 -5.96664 3.46044 -0.420257 -6.06835 3.60115 -0.440243 -6.17882 3.74878 -0.457543 -6.28034 3.9127 -0.481687 -6.35068 4.06363 -0.513984 -6.44328 4.16719 -0.543691 -6.50211 0.0241452 0.0144449 -4.71908 0.424567 -0.529369 -3.98157 0.869066 -1.06867 -3.26633 1.0584 -1.24324 -2.98594 0.186474 -0.0356486 -4.77858 0.549739 0.604546 -5.45548 0.859773 1.28258 -6.12193 0.93144 1.42586 -6.26517 0.349075 -0.0847516 -4.83816 0.247218 -0.161628 -5.82999 0.320962 -0.375781 -6.804 0.329352 -0.387581 -6.84482 0.503991 -0.153944 -4.89827 0.543215 0.572588 -5.58429 0.463483 1.08297 -6.25854 0.659617 -0.218305 -4.96182 0.399834 -0.468406 -5.89454 0.140719 -0.645376 -6.53573 0.810356 -0.286088 -5.03312 0.638626 -0.663537 -5.94309 0.553109 -0.746151 -6.43473 0.97154 -0.326978 -5.10202 1.33632 -0.333882 -6.03309 1.44101 -0.260692 -6.33927 1.133 -0.359229 -5.17477 1.22963 -1.34294 -5.32633 1.25012 -1.47306 -5.35138 1.29513 -0.379988 -5.25015 1.74029 -0.982538 -4.68273 1.45689 -0.414188 -5.32131 1.9571 -0.411347 -4.78978 1.62645 -0.440159 -5.37585 1.76137 -0.698516 -4.95161 1.79708 -0.459195 -5.42991 1.9664 -0.384583 -5.19707 1.96819 -0.477075 -5.48285 1.98913 -0.417244 -5.50878 0.0213742 0.0159159 -4.89906 -0.106104 -0.954121 -5.10589 -0.482274 -1.85118 -5.33781 -0.392786 -2.6609 -5.91776 -0.344306 -3.39221 -6.46519 0.00929569 0.0124199 -5.07862 0.917183 -0.0245282 -5.4962 1.86877 -0.0363431 -5.80336 2.84859 0.043773 -5.98649 3.73651 0.0975528 -6.16557 -0.00185311 0.00957674 -5.25825 -0.538061 -0.729626 -5.66576 -1.31522 -1.31582 -5.89467 -1.96654 -1.95333 -6.30621 -2.5276 -2.25642 -6.20841 -0.0109642 0.00644542 -5.43799 0.747276 -0.536771 -5.79853 1.44849 -1.09621 -6.24049 2.16959 -1.61553 -6.69909 2.54661 -1.91403 -6.96835 -0.018661 0.00459279 -5.61782 0.87323 -0.44678 -5.64597 1.61519 -0.942528 -6.09732 2.42424 -0.877425 -6.68145 2.79897 -0.863619 -6.96086 -0.0260963 0.00412142 -5.79766 -0.990797 -0.233101 -5.91202 -1.97689 -0.340948 -6.03848 -2.82324 -0.467955 -6.55574 -3.00683 -0.513244 -6.72321 -0.0319507 0.00833464 -5.97752 0.150868 0.936487 -6.30173 0.833496 1.58525 -6.63806 1.13866 2.1399 -7.41217 1.17692 2.20828 -7.5078 -0.0376868 0.0120558 -6.15739 0.579668 -0.683419 -6.52507 1.12686 -1.29569 -7.09578 1.61657 -1.85704 -7.76291 1.65219 -1.887 -7.7992 -0.0424502 0.0180742 -6.33722 0.0297827 0.17097 -6.39891 0.0928659 0.330298 -6.454 0.155777 0.489554 -6.5095 0.211522 0.650916 -6.56655 0.276026 0.809524 -6.62207 0.343759 0.966198 -6.67922 0.41653 1.11871 -6.74121 0.482216 1.27792 -6.79354 0.547648 1.43897 -6.84027 0.623412 1.59623 -6.88419 0.697926 1.7521 -6.93469 0.772361 1.90802 -6.98517 0.85569 2.05295 -7.05188 0.939332 2.20001 -7.11336 1.02177 2.34641 -7.17794 1.09083 2.50064 -7.23993 1.1584 2.65708 -7.29792 1.16773 2.67937 -7.30655 -0.0424502 0.0180742 -6.33722 -0.461162 0.0770111 -6.98086 0.0297827 0.17097 -6.39891 0.478328 0.288543 -6.06641 0.0928659 0.330298 -6.454 0.129294 0.411488 -6.8123 0.155777 0.489554 -6.5095 0.176 0.580327 -6.37802 -0.0466156 0.0228994 -6.51711 0.856034 -0.111089 -6.9261 1.73414 -0.480733 -7.22988 2.33675 -0.726709 -7.46381 -0.0520426 0.0271658 -6.69698 0.0898481 0.111756 -6.76847 0.235627 0.180808 -6.84835 0.379796 0.254815 -6.9267 0.53146 0.318873 -6.99946 0.692788 0.37712 -7.05406 0.856948 0.435266 -7.09956 1.02154 0.488213 -7.14961 1.18297 0.541912 -7.20842 1.33918 0.603968 -7.27282 1.49544 0.667484 -7.33566 1.65311 0.728221 -7.39771 1.80916 0.790925 -7.46187 1.96064 0.865268 -7.52454 2.1134 0.948048 -7.57156 2.26582 1.03101 -7.61936 2.31316 1.05715 -7.63409 -0.0520426 0.0271658 -6.69698 0.12831 0.196935 -6.4022 0.0898481 0.111756 -6.76847 0.193916 0.00571379 -6.88324 -0.056191 0.0309799 -6.87689 -0.0715774 -0.139728 -6.93187 -0.0968323 -0.309995 -6.98451 -0.119822 -0.480442 -7.0376 -0.147383 -0.651107 -7.08774 -0.172803 -0.823963 -7.13104 -0.185538 -0.999644 -7.16811 -0.18708 -1.17194 -7.22017 -0.208515 -1.34767 -7.25274 -0.223327 -1.52281 -7.29158 -0.227863 -1.69506 -7.34361 -0.234112 -1.86921 -7.38869 -0.240753 -2.04365 -7.43258 -0.249967 -2.21803 -7.47627 -0.263296 -2.38846 -7.53261 -0.267454 -2.43074 -7.54769 -0.056191 0.0309799 -6.87689 0.0812952 -0.071571 -6.85184 -0.0571001 0.0335539 -7.05687 0.921107 -0.104185 -7.21224 1.89984 0.079012 -7.30454 2.09634 0.12554 -7.3083 -0.0645326 0.0364519 -7.23669 -0.60723 0.799468 -7.58781 -1.14385 1.56506 -7.94265 -1.1627 1.59082 -7.95616 -0.0716371 0.0382731 -7.41654 0.640638 -0.572738 -7.76199 1.12747 -1.03055 -8.27259 -0.0767291 0.0440157 -7.59638 -1.0375 -0.00854197 -7.86869 -1.72175 0.0224283 -8.0162 -0.0820023 0.0497068 -7.77621 -0.244062 -0.00126529 -7.8357 -0.410911 -0.0268637 -7.8982 -0.57874 -0.0471942 -7.96 -0.738643 -0.0846158 -8.0337 -0.898726 -0.123819 -8.10606 -1.05023 -0.16009 -8.19623 -1.20511 -0.18153 -8.28541 -1.35606 -0.20384 -8.38089 -1.44346 -0.222706 -8.43894 -0.0837707 0.0612495 -7.95583 -1.02194 -0.00298484 -8.29601 -1.30059 -0.0158114 -8.37148 -0.0856986 0.0726471 -8.13546 0.661503 -0.412744 -8.58943 0.733579 -0.454467 -8.63503 -0.0857796 0.0821652 -8.31521 -0.235213 0.157118 -8.38193 -0.378777 0.23905 -8.45318 -0.525256 0.315117 -8.525 -0.666344 0.397833 -8.60018 -0.813484 0.469648 -8.67496 -0.817506 0.471612 -8.67712 -0.0859959 0.0916508 -8.49496 -0.716771 0.0199134 -8.70928 -0.0924143 0.101064 -8.6746 0.210194 -0.151931 -8.89303 -0.0975808 0.100598 -8.85452 -0.220704 0.221358 -8.90608 -0.251041 0.251084 -8.91814 
</DataArray>
</Points>
<Lines>
<DataArray type="Int32" Name="connectivity" NumberOfComponents="1" format="ascii" >
0 1 2 3 4 5 6 7 8 9 10 11 12 13 14 15 16 17 18 19 20 21 22 23 24 25 26 27 28 29 30 31 32 33 34 35 36 37 38 39 40 41 42 43 44 45 46 47 48 49 50 51 52 53 54 55 56 57 58 59 60 61 62 63 64 65 66 67 68 69 70 71 72 73 74 75 76 77 78 79 80 81 82 83 84 85 86 87 88 89 90 91 92 93 94 95 96 97 98 99 100 101 102 103 104 105 106 107 108 109 110 111 112 113 114 115 116 117 118 119 120 121 122 123 124 125 126 127 128 129 130 131 132 133 134 135 136 137 138 139 140 141 142 143 144 145 146 147 148 149 150 151 152 153 154 155 156 157 158 159 160 161 162 163 164 165 166 167 168 169 170 171 172 173 174 175 176 177 178 179 180 181 182 183 184 185 186 187 188 189 190 191 192 193 194 195 196 197 198 199 200 201 202 203 204 205 206 207 208 209 210 211 212 213 214 215 216 217 218 219 220 221 222 223 224 225 226 227 228 229 230 231 232 233 234 235 236 237 238 239 240 241 242 243 244 245 246 247 248 249 250 251 252 253 254 255 256 257 258 259 260 261 262 263 264 265 266 267 268 269 270 271 272 273 274 275 276 277 278 279 280 281 282 283 284 285 286 287 288 289 290 291 292 293 294 295 296 297 298 299 300 301 302 303 304 305 306 307 308 309 310 311 312 313 314 315 316 317 318 319 320 321 322 323 324 325 326 327 328 329 330 331 332 333 334 335 336 337 338 339 340 341 342 343 344 345 346 347 348 349 350 351 352 353 354 355 356 
</DataArray>
<DataArray type="Int32" Name="offsets" NumberOfComponents="1" format="ascii" >
44 50 80 84 88 92 96 100 104 107 110 113 116 119 121 123 125 127 133 139 166 170 174 178 181 184 187 190 193 195 197 199 201 203 208 213 218 223 228 233 238 243 262 264 266 268 270 274 291 293 295 311 313 317 321 324 327 337 340 343 350 352 354 357 
</DataArray>

</Lines>
</Piece>
</PolyData>
</VTKFile>
