<?xml version="1.0"?><VTKFile type="PolyData" version="0.1" byte_order="LittleEndian">
<PolyData>
<Piece NumberOfLines="15" NumberOfPoints="120">
<PointData Scalars=" PointData">
<DataArray type="Float32" Name="time" NumberOfComponents="1" format="ascii" >
0 0.143921 0.299858 0.457144 0.615822 0.762604 0.90478 1.06896 1.21812 1.39289 1.57564 1.70295 1.85739 2.02675 2.19891 2.32585 2.44568 2.59446 2.76034 2.89979 3.07741 3.23481 3.39362 3.55701 3.68861 3.86049 4.00967 4.16739 4.30298 4.47637 4.62788 4.76986 4.94241 5.10324 5.25783 5.4231 5.59567 5.74016 5.86784 6.03884 6.18842 6.35136 6.53999 6.7262 6.89406 7.05999 7.21789 7.38674 7.55538 7.74876 7.89204 8.05648 8.19979 8.35157 8.54225 8.70397 8.89373 9.05653 9.20188 9.35134 9.49909 9.68709 9.86747 10 7.72663 9.19063 10 7.89993 9.8316 10 8.07478 9.25984 10 8.25122 9.50773 10 8.41447 9.83479 10 8.57263 9.88234 10 8.75532 10 8.92134 10 9.1159 10 9.3194 10 9.46121 10 9.63328 10 9.822 10 7 7.12188 7.24798 7.37597 7.50227 7.62057 7.7431 7.88125 8.00572 8.12449 8.2522 8.3677 8.51439 8.65768 8.79238 8.94756 9.08081 9.19697 9.34533 9.47554 9.61554 9.75108 9.88658 10 
</DataArray>

</PointData>
<CellData Scalars=" CellData">
<DataArray type="Float32" Name="radius" NumberOfComponents="1" format="ascii" >
0.146454 0.0487213 0.0477486 0.0511903 0.0552933 0.0558205 0.049025 0.0433618 0.0479162 0.0539891 0.0461646 0.0442374 0.0547709 0.0540132 0.124476 
</DataArray>
<DataArray type="Float32" Name="subType" NumberOfComponents="1" format="ascii" >
1 2 2 2 2 2 2 2 2 2 2 2 2 2 4 
</DataArray>
<DataArray type="Float32" Name="creationTime" NumberOfComponents="1" format="ascii" >
0 7.72663 7.89993 8.07478 8.25122 8.41447 8.57263 8.75532 8.92134 9.1159 9.3194 9.46121 9.63328 9.822 7 
</DataArray>

</CellData>
<Points>
<DataArray type="Float32" Name="Coordinates" NumberOfComponents="3" format="ascii" >
0 0 -3 -0.366738 0.0825494 -3.29938 -0.775544 0.182982 -3.60397 -1.19244 0.253561 -3.9117 -1.60503 0.257814 -4.23862 -1.9863 0.261598 -4.53985 -2.3565 0.300197 -4.82639 -2.79268 0.343647 -5.14394 -3.19513 0.396279 -5.41972 -3.66389 0.467058 -5.7427 -4.13395 0.57229 -6.0976 -4.45857 0.638233 -6.34916 -4.85184 0.708382 -6.65578 -5.28135 0.784749 -6.99232 -5.71816 0.904278 -7.31963 -6.05135 0.98856 -7.54527 -6.37676 1.05574 -7.74451 -6.77657 1.13843 -7.99726 -7.22713 1.21865 -8.27276 -7.618 1.28173 -8.48261 -8.09403 1.38093 -8.77904 -8.49603 1.44685 -9.07498 -8.91603 1.48146 -9.35663 -9.37136 1.48874 -9.60842 -9.74312 1.5107 -9.79874 -10.1888 1.59802 -10.1002 -10.5793 1.67673 -10.3536 -10.9929 1.7665 -10.6159 -11.3527 1.84597 -10.8323 -11.811 1.94759 -11.1096 -12.1967 2.05562 -11.3656 -12.5623 2.13559 -11.6054 -12.9565 2.29859 -11.935 -13.3269 2.46198 -12.2306 -13.6837 2.6129 -12.5154 -14.06 2.76918 -12.8268 -14.4577 2.8739 -13.1678 -14.784 2.96035 -13.4598 -15.0705 3.04025 -13.7177 -15.4385 3.14021 -14.0802 -15.7586 3.24668 -14.3917 -16.1309 3.29149 -14.7211 -16.5252 3.35524 -15.1367 -16.9041 3.41926 -15.5544 -17.2358 3.48118 -15.9372 -17.573 3.54064 -16.306 -17.9006 3.61989 -16.6448 -18.2488 3.69133 -17.0104 -18.5677 3.7529 -17.401 -18.9627 3.80752 -17.8237 -19.2521 3.82851 -18.1404 -19.5831 3.85394 -18.5034 -19.8712 3.85665 -18.8196 -20.1729 3.85981 -19.1563 -20.5497 3.88445 -19.5788 -20.82 3.88327 -19.9748 -21.1316 3.89795 -20.4413 -21.3952 3.89642 -20.8428 -21.6282 3.89349 -21.2017 -21.8349 3.89037 -21.589 -22.0322 3.88856 -21.9746 -22.2532 3.86063 -22.4774 -22.4353 3.82768 -22.97 -22.5348 3.81622 -23.3426 -0.366738 0.0825494 -3.29938 -0.980958 -0.171048 -2.5521 -1.30035 -0.306013 -2.18743 -0.775544 0.182982 -3.60397 -1.19848 -0.720064 -3.52892 -1.23287 -0.793805 -3.52277 -1.19244 0.253561 -3.9117 -1.83639 0.079441 -3.16671 -2.24701 0.0047989 -2.78429 -1.60503 0.257814 -4.23862 -1.58623 -0.700357 -3.95304 -1.59545 -1.04306 -3.84302 -1.9863 0.261598 -4.53985 -2.67436 0.514381 -3.85965 -2.74745 0.53826 -3.78285 -2.3565 0.300197 -4.82639 -3.02831 0.531654 -4.12275 -3.08296 0.551904 -4.06217 -2.79268 0.343647 -5.14394 -2.37541 0.604516 -5.84541 -3.19513 0.396279 -5.41972 -3.25672 1.03799 -5.29212 -3.66389 0.467058 -5.7427 -3.63032 0.298907 -6.23567 -4.13395 0.57229 -6.0976 -4.12842 1.00357 -5.92146 -4.45857 0.638233 -6.34916 -4.72333 0.434557 -6.20461 -4.85184 0.708382 -6.65578 -4.87511 0.993899 -6.62012 -5.28135 0.784749 -6.99232 -5.35954 0.798056 -6.88985 0 0 -3 0.364225 -0.139555 -3.26836 0.74527 -0.263108 -3.54864 1.13645 -0.390036 -3.8245 1.52199 -0.512855 -4.09675 1.88117 -0.629344 -4.35224 2.24008 -0.753991 -4.63115 2.60148 -0.912468 -4.98537 2.91576 -0.998647 -5.33344 3.20461 -1.09683 -5.66977 3.50544 -1.20758 -6.03681 3.78403 -1.29563 -6.36566 4.10979 -1.43735 -6.79531 4.42905 -1.52787 -7.22553 4.73878 -1.61165 -7.62149 5.04777 -1.71854 -8.10756 5.28945 -1.74823 -8.54639 5.4874 -1.76591 -8.93515 5.688 -1.81689 -9.45173 5.8632 -1.86308 -9.90414 6.03175 -1.96525 -10.3884 6.19503 -1.97305 -10.8664 6.31089 -1.95909 -11.3565 6.40154 -1.93646 -11.767 
</DataArray>
</Points>
<Lines>
<DataArray type="Int32" Name="connectivity" NumberOfComponents="1" format="ascii" >
0 1 2 3 4 5 6 7 8 9 10 11 12 13 14 15 16 17 18 19 20 21 22 23 24 25 26 27 28 29 30 31 32 33 34 35 36 37 38 39 40 41 42 43 44 45 46 47 48 49 50 51 52 53 54 55 56 57 58 59 60 61 62 63 64 65 66 67 68 69 70 71 72 73 74 75 76 77 78 79 80 81 82 83 84 85 86 87 88 89 90 91 92 93 94 95 96 97 98 99 100 101 102 103 104 105 106 107 108 109 110 111 112 113 114 115 116 117 118 119 
</DataArray>
<DataArray type="Int32" Name="offsets" NumberOfComponents="1" format="ascii" >
64 67 70 73 76 79 82 84 86 88 90 92 94 96 120 
</DataArray>

</Lines>
</Piece>
</PolyData>
</VTKFile>
