<?xml version="1.0"?><VTKFile type="PolyData" version="0.1" byte_order="LittleEndian">
<PolyData>
<Piece NumberOfLines="14" NumberOfPoints="120">
<PointData Scalars=" PointData">
<DataArray type="Float32" Name="time" NumberOfComponents="1" format="ascii" >
0 0.250348 0.60201 0.955052 1.30949 1.66532 2.02257 2.38124 2.74135 3.10291 3.46592 3.83041 4.19638 4.56385 4.93282 5.30331 5.67533 6.0489 6.42403 6.80073 7.17901 7.55889 7.94038 8.3235 8.70825 9.09466 9.48273 9.87249 10 5.22379 5.56875 5.93929 6.33951 6.77456 7.25112 7.77792 8.36683 9.03449 9.80524 10 5.59548 5.94045 6.31099 6.7112 7.14626 7.62281 8.14961 8.73853 9.40618 10 5.96872 6.31369 6.68423 7.08444 7.5195 7.99605 8.52285 9.11177 9.77942 10 6.34351 6.68848 7.05902 7.45923 7.89429 8.37084 8.89764 9.48656 10 6.71987 7.06484 7.43538 7.83559 8.27065 8.7472 9.274 9.86292 10 7.09782 7.44278 7.81332 8.21353 8.64859 9.12514 9.65194 10 7.47735 7.82232 8.19286 8.59307 9.02813 9.50468 10 7.8585 8.20346 8.574 8.97421 9.40927 9.88582 10 8.24126 8.58623 8.95677 9.35698 9.79204 10 8.62567 8.97063 9.34117 9.74138 10 9.01172 9.35668 9.72722 10 9.39943 9.7444 10 9.78883 10 
</DataArray>

</PointData>
<CellData Scalars=" CellData">
<DataArray type="Float32" Name="radius" NumberOfComponents="1" format="ascii" >
0.13 0.0443867 0.0443477 0.0581744 0.0441656 0.0474765 0.0577011 0.0451138 0.0488265 0.0398432 0.0539231 0.0527022 0.0527426 0.0504559 
</DataArray>
<DataArray type="Float32" Name="subType" NumberOfComponents="1" format="ascii" >
1 2 2 2 2 2 2 2 2 2 2 2 2 2 
</DataArray>
<DataArray type="Float32" Name="creationTime" NumberOfComponents="1" format="ascii" >
0 5.22379 5.59548 5.96872 6.34351 6.71987 7.09782 7.47735 7.8585 8.24126 8.62567 9.01172 9.39943 9.78883 
</DataArray>

</CellData>
<Points>
<DataArray type="Float32" Name="Coordinates" NumberOfComponents="3" format="ascii" >
0 0 -3 0.0155571 -0.0043687 -3.49974 0.0507807 0.000115538 -4.19884 0.0510154 -0.0130774 -4.89871 0.0407175 -0.0455815 -5.59788 0.0207712 -0.0757162 -6.29695 -0.0104753 -0.0635398 -6.99615 -0.045381 -0.0612502 -7.69527 -0.0642859 -0.0536165 -8.39497 -0.0692685 0.0144853 -9.09164 -0.123973 0.0609958 -9.78794 -0.175324 0.0845153 -10.4857 -0.254775 0.0804369 -11.1811 -0.276661 0.0786942 -11.8808 -0.26883 0.0974196 -12.5805 -0.226634 0.123061 -13.2787 -0.146502 0.125969 -13.9741 -0.0832303 0.148599 -14.6709 0.00231052 0.175473 -15.3651 0.0939411 0.212522 -16.0581 0.122229 0.181315 -16.7569 0.128749 0.201296 -17.4565 0.131393 0.214908 -18.1564 0.174493 0.184387 -18.8544 0.19556 0.173786 -19.554 0.182362 0.157581 -20.2537 0.16735 0.139649 -20.9533 0.150297 0.123418 -21.6529 0.148479 0.120557 -21.8812 0.0155571 -0.0043687 -3.49974 -0.681288 -0.581272 -3.92587 -1.25886 -1.15351 -4.50807 -1.82352 -1.72738 -5.10123 -2.41223 -2.21574 -5.74537 -2.91678 -2.69786 -6.4616 -3.42399 -3.17666 -7.17818 -3.78167 -3.78784 -7.88425 -4.10042 -4.37228 -8.63045 -4.37452 -4.89294 -9.43902 -4.43866 -5.00873 -9.62616 0.0507807 0.000115538 -4.19884 1.02718 0.197447 -4.28666 1.99125 0.39699 -4.462 2.97806 0.386469 -4.62356 3.94551 0.288532 -4.85687 4.89137 0.355017 -5.17456 5.82065 0.359781 -5.54392 6.75132 0.364309 -5.90975 7.67887 0.372025 -6.28338 8.40731 0.35842 -6.57257 0.0510154 -0.0130774 -4.89871 0.725312 -0.723234 -5.1012 1.40629 -1.4377 -5.26185 2.04301 -2.19418 -5.41125 2.51414 -3.06016 -5.57893 3.04822 -3.89311 -5.72367 3.52397 -4.73423 -5.98093 4.00662 -5.50263 -6.40118 4.48553 -6.28049 -6.80811 4.62995 -6.51611 -6.93011 0.0407175 -0.0455815 -5.59788 -0.51632 -0.792733 -5.23529 -1.09552 -1.54529 -4.92194 -1.7152 -2.31404 -4.76379 -2.32905 -3.08904 -4.61356 -2.94128 -3.87825 -4.56548 -3.54593 -4.67357 -4.52227 -4.14236 -5.47562 -4.49062 -4.61079 -6.09958 -4.46244 0.0207712 -0.0757162 -6.29695 0.882135 0.426756 -6.2223 1.73271 0.945444 -6.13582 2.58631 1.45055 -6.00838 3.46048 1.91774 -5.87587 4.33474 2.38574 -5.74681 5.20887 2.84281 -5.58255 6.06388 3.35315 -5.49028 6.25004 3.46235 -5.47515 -0.0104753 -0.0635398 -6.99615 -0.866071 -0.564171 -7.12777 -1.7579 -0.993753 -7.26957 -2.67927 -1.34968 -7.4257 -3.61905 -1.63173 -7.61876 -4.56018 -1.82625 -7.89523 -5.49809 -1.97653 -8.20787 -6.03347 -2.02355 -8.4861 -0.045381 -0.0612502 -7.69527 -1.03488 -0.148668 -7.58019 -2.02328 -0.246485 -7.464 -3.01937 -0.312903 -7.4057 -4.01078 -0.443497 -7.41299 -5.00584 -0.531534 -7.45875 -5.94034 -0.646081 -7.51484 -0.0642859 -0.0536165 -8.39497 0.880213 -0.340894 -8.55433 1.80118 -0.689461 -8.72844 2.71387 -1.05599 -8.90916 3.59274 -1.49761 -9.08958 4.47497 -1.8549 -9.39622 4.66811 -1.93938 -9.47703 -0.0692685 0.0144853 -9.09164 0.791208 -0.482113 -9.20552 1.65453 -0.96986 -9.33504 2.44081 -1.5544 -9.53525 3.21226 -2.15403 -9.74811 3.56145 -2.39924 -9.88507 -0.123973 0.0609958 -9.78794 0.498992 -0.670799 -10.0643 0.963614 -1.48205 -10.4193 1.43772 -2.29757 -10.7512 1.73602 -2.76369 -10.9954 -0.175324 0.0845153 -10.4857 0.531312 -0.567037 -10.7616 1.28174 -1.17257 -11.0265 1.78276 -1.61261 -11.2047 -0.254775 0.0804369 -11.1811 0.537772 -0.341656 -11.6212 1.06041 -0.641656 -11.9729 -0.276661 0.0786942 -11.8808 0.232664 0.430798 -11.9183 
</DataArray>
</Points>
<Lines>
<DataArray type="Int32" Name="connectivity" NumberOfComponents="1" format="ascii" >
0 1 2 3 4 5 6 7 8 9 10 11 12 13 14 15 16 17 18 19 20 21 22 23 24 25 26 27 28 29 30 31 32 33 34 35 36 37 38 39 40 41 42 43 44 45 46 47 48 49 50 51 52 53 54 55 56 57 58 59 60 61 62 63 64 65 66 67 68 69 70 71 72 73 74 75 76 77 78 79 80 81 82 83 84 85 86 87 88 89 90 91 92 93 94 95 96 97 98 99 100 101 102 103 104 105 106 107 108 109 110 111 112 113 114 115 116 117 118 119 
</DataArray>
<DataArray type="Int32" Name="offsets" NumberOfComponents="1" format="ascii" >
29 40 50 60 69 78 86 93 100 106 111 115 118 120 
</DataArray>

</Lines>
</Piece>
</PolyData>
</VTKFile>
