<?xml version="1.0"?><VTKFile type="PolyData" version="0.1" byte_order="LittleEndian">
<PolyData>
<Piece NumberOfLines="53" NumberOfPoints="435">
<PointData Scalars=" PointData">
<DataArray type="Float32" Name="time" NumberOfComponents="1" format="ascii" >
0 0.170305 0.341084 0.512341 0.684077 0.856297 1.029 1.2022 1.37588 1.55006 1.72473 1.89991 2.07559 2.25177 2.42846 2.60566 2.78337 2.96161 3.14036 3.31964 3.49944 3.67977 3.86063 4.04203 4.22397 4.40645 4.58948 4.77305 4.95717 5.14186 5.32709 5.5129 5.69926 5.8862 6.0737 6.26179 6.45045 6.63969 6.82952 7.01995 7.21096 7.40257 7.59479 7.78761 7.98103 8.17507 8.36973 8.56501 8.76091 8.95744 9.1546 9.3524 9.55084 9.74993 9.94966 10.1501 10.3511 10.5528 10.7552 10.9582 11.1619 11.3663 11.5714 11.7772 11.9837 12.1908 12.3987 12.6073 12.8166 13.0266 13.2373 13.4487 13.6609 13.8739 14.0875 14.3019 14.5171 14.733 14.9497 15 6.58286 7.26921 7.99823 8.77555 9.60805 10.5042 11.4744 12.5322 13.6949 14.9855 15 6.77251 7.45887 8.18788 8.96521 9.79771 10.6938 11.6641 12.7218 13.8845 15 6.96276 7.64911 8.37813 9.15545 9.98795 10.8841 11.8543 12.9121 14.0748 15 7.15359 7.83995 8.56896 9.34629 10.1788 11.0749 12.0451 13.1029 14.2656 15 7.34503 8.03138 8.76039 9.53772 10.3702 11.2663 12.2366 13.2944 14.457 15 7.53706 8.22342 8.95243 9.72975 10.5623 11.4584 12.4286 13.4864 14.6491 15 7.7297 8.41605 9.14506 9.92239 10.7549 11.651 12.6213 13.679 14.8417 15 7.92294 8.6093 9.33831 10.1156 10.9481 11.8442 12.8145 13.8723 15 8.1168 8.80315 9.53217 10.3095 11.142 12.0381 13.0084 14.0661 15 8.31127 8.99762 9.72664 10.504 11.3365 12.2326 13.2028 14.2606 15 8.50636 9.19272 9.92173 10.6991 11.5316 12.4277 13.3979 14.4557 15 8.70207 9.38843 10.1174 10.8948 11.7273 12.6234 13.5936 14.6514 15 8.89842 9.58477 10.3138 11.0911 11.9236 12.8197 13.79 14.8477 15 9.09539 9.78174 10.5108 11.2881 12.1206 13.0167 13.9869 15 9.293 9.97935 10.7084 11.4857 12.3182 13.2143 14.1846 15 9.49124 10.1776 10.9066 11.6839 12.5164 13.4125 14.3828 15 9.69014 10.3765 11.1055 11.8828 12.7153 13.6114 14.5817 15 9.88968 10.576 11.305 12.0824 12.9149 13.811 14.7812 15 10.0899 10.7762 11.5052 12.2826 13.1151 14.0112 14.9814 15 10.2907 10.9771 11.7061 12.4834 13.3159 14.212 15 10.4922 11.1786 11.9076 12.6849 13.5174 14.4135 15 10.6944 11.3808 12.1098 12.8871 13.7196 14.6157 15 10.8972 11.5836 12.3126 13.0899 13.9224 14.8185 15 11.1008 11.7871 12.5161 13.2935 14.126 15 11.305 11.9913 12.7203 13.4976 14.3301 15 11.5098 12.1962 12.9252 13.7025 14.535 15 11.7154 12.4018 13.1308 13.9081 14.7406 15 11.9217 12.608 13.337 14.1143 14.9468 15 12.1286 12.815 13.544 14.3213 15 12.3363 13.0226 13.7516 14.529 15 12.5446 13.231 13.96 14.7373 15 12.7537 13.4401 14.1691 14.9464 15 12.9635 13.6498 14.3789 15 13.174 13.8604 14.5894 15 13.3852 14.0716 14.8006 15 13.5972 14.2836 15 13.8099 14.4963 15 14.0234 14.7097 15 14.2375 14.9239 15 14.4525 15 14.6682 15 14.8846 15 7 7.1703 7.34108 7.51234 7.68408 7.8563 8.029 8.2022 8.37588 8.55006 8.72473 8.89991 9.07559 9.25177 9.42846 9.60566 9.78337 9.96161 10.1404 10.3196 10.4994 10.6798 10.8606 11.042 11.224 11.4065 11.5895 11.773 11.9572 12.1419 12.3271 12.5129 12.6993 12.8862 13.0737 13.2618 13.4504 13.6397 13.8295 14.0199 14.211 14.4026 14.5948 14.7876 14.981 15 13.5829 14.2692 14.9982 15 13.7725 14.4589 15 13.9628 14.6491 15 14.1536 14.8399 15 14.345 15 14.5371 15 14.7297 15 14.9229 15 14 14.1703 14.3411 14.5123 14.6841 14.8563 15 
</DataArray>

</PointData>
<CellData Scalars=" CellData">
<DataArray type="Float32" Name="radius" NumberOfComponents="1" format="ascii" >
0.13 0.05 0.05 0.05 0.05 0.05 0.05 0.05 0.05 0.05 0.05 0.05 0.05 0.05 0.05 0.05 0.05 0.05 0.05 0.05 0.05 0.05 0.05 0.05 0.05 0.05 0.05 0.05 0.05 0.05 0.05 0.05 0.05 0.05 0.05 0.05 0.05 0.05 0.05 0.05 0.05 0.05 0.05 0.13 0.05 0.05 0.05 0.05 0.05 0.05 0.05 0.05 0.13 
</DataArray>
<DataArray type="Float32" Name="subType" NumberOfComponents="1" format="ascii" >
1 2 2 2 2 2 2 2 2 2 2 2 2 2 2 2 2 2 2 2 2 2 2 2 2 2 2 2 2 2 2 2 2 2 2 2 2 2 2 2 2 2 2 4 2 2 2 2 2 2 2 2 4 
</DataArray>
<DataArray type="Float32" Name="creationTime" NumberOfComponents="1" format="ascii" >
0 6.58286 6.77251 6.96276 7.15359 7.34503 7.53706 7.7297 7.92294 8.1168 8.31127 8.50636 8.70207 8.89842 9.09539 9.293 9.49124 9.69014 9.88968 10.0899 10.2907 10.4922 10.6944 10.8972 11.1008 11.305 11.5098 11.7154 11.9217 12.1286 12.3363 12.5446 12.7537 12.9635 13.174 13.3852 13.5972 13.8099 14.0234 14.2375 14.4525 14.6682 14.8846 7 13.5829 13.7725 13.9628 14.1536 14.345 14.5371 14.7297 14.9229 14 
</DataArray>

</CellData>
<Points>
<DataArray type="Float32" Name="Coordinates" NumberOfComponents="3" format="ascii" >
0 0 -1.2 0.3177 0.377768 -1.27974 0.651278 0.733186 -1.39111 1.01041 1.06548 -1.4941 1.36077 1.37614 -1.66941 1.70729 1.68964 -1.8473 2.05688 1.97273 -2.06558 2.40539 2.25063 -2.29211 2.75352 2.52766 -2.52028 3.08042 2.77522 -2.80637 3.42006 3.00506 -3.0924 3.7877 3.23437 -3.34193 4.14015 3.49282 -3.58479 4.5042 3.74904 -3.81242 4.86367 4.0162 -4.0347 5.2237 4.27806 -4.26231 5.58151 4.52152 -4.51271 5.93309 4.77702 -4.75991 6.27919 5.02206 -5.02482 6.62064 5.25768 -5.30391 6.9456 5.50386 -5.59338 7.27004 5.7469 -5.88608 7.58883 5.98827 -6.18627 7.90696 6.23489 -6.48287 8.24404 6.43882 -6.79075 8.59076 6.60989 -7.1078 8.93989 6.78901 -7.41768 9.2732 6.94162 -7.7577 9.6049 7.06957 -8.10927 9.93442 7.18885 -8.4659 10.2572 7.29879 -8.8316 10.5211 7.40869 -9.24181 10.8201 7.47768 -9.63657 11.1127 7.55627 -10.0343 11.3633 7.66051 -10.4543 11.6454 7.77456 -10.851 11.9302 7.88418 -11.247 12.2075 7.99711 -11.6475 12.4931 8.12738 -12.0367 12.8074 8.27469 -12.3966 13.0941 8.42929 -12.7759 13.3732 8.57895 -13.1628 13.6528 8.70575 -13.5575 13.9519 8.82593 -13.9397 14.244 8.98737 -14.312 14.5368 9.15447 -14.6813 14.8247 9.33737 -15.0469 15.0782 9.56528 -15.4126 15.2716 9.79237 -15.8139 15.4695 10.0126 -16.2168 15.6501 10.225 -16.6319 15.8277 10.4356 -17.0492 16.0143 10.6227 -17.4736 16.1769 10.803 -17.9107 16.3338 10.9643 -18.3572 16.4957 11.0729 -18.8176 16.6541 11.1754 -19.2807 16.7926 11.2486 -19.7555 16.89 11.3503 -20.2353 16.9922 11.4461 -20.7152 17.0962 11.5431 -21.1946 17.2131 11.5869 -21.6787 17.3279 11.6283 -22.1636 17.452 11.6895 -22.6441 17.5594 11.7633 -23.1268 17.6435 11.8328 -23.6148 17.7039 11.9162 -24.1041 17.7327 12.0037 -24.5955 17.7637 12.0914 -25.0868 17.7943 12.1792 -25.578 17.8284 12.2681 -26.0689 17.8601 12.3547 -26.5603 17.8675 12.5119 -27.0349 17.8927 12.6729 -27.5076 17.9294 12.7853 -27.9934 17.9469 12.9102 -28.4773 17.9756 12.9995 -28.9684 18.026 13.0636 -29.4617 18.0429 13.1525 -29.9534 18.0466 13.1732 -30.0672 0.3177 0.377768 -1.27974 0.667298 0.126483 -1.0255 1.05532 -0.101452 -0.807592 1.42067 -0.369787 -0.596595 1.76812 -0.64767 -0.368441 2.13855 -0.887153 -0.13301 2.49784 -1.11846 0.126626 2.84238 -1.37784 0.37964 3.18257 -1.64419 0.631293 3.54916 -1.88389 0.872447 3.55305 -1.88643 0.874998 0.651278 0.733186 -1.39111 1.00804 0.482794 -1.63611 1.36494 0.232222 -1.88072 1.68131 -0.03757 -2.15844 2.00448 -0.304673 -2.43086 2.34211 -0.591255 -2.66297 2.65737 -0.898844 -2.89962 2.97284 -1.19714 -3.14761 3.30986 -1.45221 -3.41474 3.61581 -1.66033 -3.64404 1.01041 1.06548 -1.4941 0.617867 1.31886 -1.67217 0.231122 1.56752 -1.86862 -0.150646 1.82179 -2.06763 -0.515932 2.08282 -2.28769 -0.873512 2.34994 -2.51304 -1.23102 2.61816 -2.73719 -1.58397 2.88286 -2.97249 -1.94668 3.14611 -3.19416 -2.20677 3.33728 -3.36233 1.36077 1.37614 -1.66941 1.29774 1.26767 -2.15342 1.22781 1.16782 -2.63833 1.12319 1.0314 -3.10784 1.01278 0.929063 -3.58464 0.911557 0.837069 -4.06557 0.805843 0.736256 -4.54376 0.703967 0.648786 -5.02539 0.614088 0.555732 -5.50836 0.557303 0.479225 -5.78357 1.70729 1.68964 -1.8473 1.81427 1.3321 -2.18005 1.93903 0.986843 -2.51951 2.05435 0.641167 -2.86187 2.17804 0.268601 -3.17154 2.30113 -0.104724 -3.48053 2.41568 -0.48902 -3.77919 2.51086 -0.876509 -4.08051 2.63203 -1.2651 -4.37088 2.68364 -1.43762 -4.49208 2.05688 1.97273 -2.06558 1.96279 2.26473 -1.67077 1.85111 2.54537 -1.27231 1.73649 2.8235 -0.872929 1.62538 3.13719 -0.499757 1.50884 3.46172 -0.137684 1.41548 3.78598 0.231291 1.32623 4.1089 0.602441 1.25221 4.41533 0.990541 1.2238 4.50094 1.09949 2.40539 2.25063 -2.29211 2.08336 2.32916 -2.66646 1.76979 2.44067 -3.0396 1.45586 2.53896 -3.41614 1.12182 2.61196 -3.78096 0.795583 2.69126 -4.15147 0.464006 2.76124 -4.51911 0.138336 2.86064 -4.88525 -0.186612 2.9486 -5.25495 -0.22805 2.96051 -5.30269 2.75352 2.52766 -2.52028 2.61735 2.97099 -2.33342 2.48575 3.42345 -2.1662 2.32913 3.86401 -1.98905 2.15407 4.30548 -1.83267 1.94857 4.72039 -1.64394 1.76495 5.14329 -1.45046 1.60465 5.59588 -1.3109 1.41936 6.01042 -1.13854 3.08042 2.77522 -2.80637 2.80029 3.07322 -3.09399 2.46884 3.35655 -3.33867 2.15638 3.6876 -3.54549 1.87859 4.04279 -3.76151 1.59441 4.35595 -4.0283 1.31189 4.6769 -4.28748 1.0372 5.00445 -4.54682 0.806746 5.26604 -4.7539 3.42006 3.00506 -3.0924 3.34052 2.65108 -3.43646 3.25658 2.29633 -3.77867 3.19194 1.91863 -4.09986 3.14147 1.54284 -4.42579 3.08937 1.15696 -4.73945 3.09197 0.7673 -5.05275 3.0896 0.37492 -5.36265 3.09396 0.123319 -5.56624 3.7877 3.23437 -3.34193 3.88773 2.86802 -3.66717 3.9716 2.51101 -4.00704 4.05046 2.14118 -4.33416 4.12965 1.76455 -4.65335 4.22089 1.40101 -4.98427 4.31374 1.03826 -5.31563 4.39228 0.680947 -5.65644 4.43774 0.504022 -5.81249 4.14015 3.49282 -3.58479 3.77758 3.5264 -3.92745 3.37833 3.5126 -4.22812 2.9998 3.49267 -4.55419 2.63569 3.47499 -4.89641 2.27233 3.44423 -5.23849 1.92024 3.37442 -5.58657 1.54568 3.3188 -5.91308 1.432 3.3044 -6.01768 4.5042 3.74904 -3.81242 4.78877 3.59887 -3.4297 5.07985 3.45941 -3.04784 5.36922 3.32115 -2.66424 5.66171 3.18063 -2.28384 6.01873 3.04253 -1.96219 6.36168 2.87657 -1.63838 6.68861 2.68954 -1.30954 6.73254 2.66398 -1.26387 4.86367 4.0162 -4.0347 4.66306 4.45565 -3.90568 4.46253 4.8975 -3.78504 4.23297 5.32473 -3.66348 4.0062 5.75394 -3.54367 3.7972 6.1875 -3.40821 3.59715 6.62852 -3.2838 3.42769 7.06217 -3.16803 5.2237 4.27806 -4.26231 5.10327 4.76321 -4.25118 4.96321 5.24287 -4.26898 4.8018 5.71597 -4.27979 4.62843 6.18495 -4.27984 4.42352 6.64076 -4.26381 4.25101 7.10802 -4.22013 4.11666 7.47191 -4.18594 5.58151 4.52152 -4.51271 5.43004 4.55303 -4.98817 5.30467 4.54906 -5.47218 5.18979 4.53084 -5.95847 5.07732 4.4954 -6.44436 4.95991 4.47057 -6.92975 4.82896 4.4735 -7.41228 4.75301 4.48038 -7.69954 5.93309 4.77702 -4.75991 5.87755 5.07245 -4.36037 5.82439 5.30652 -3.92175 5.77091 5.53999 -3.48285 5.70567 5.71848 -3.02038 5.60238 5.89603 -2.56452 5.49494 6.06091 -2.10488 5.45025 6.13695 -1.92189 6.27919 5.02206 -5.02482 6.03272 4.85388 -5.42603 5.77219 4.67692 -5.81437 5.52682 4.5012 -6.21301 5.28053 4.3248 -6.61078 5.04381 4.13342 -7.00745 4.81487 3.95177 -7.41314 4.76745 3.90986 -7.49959 6.62064 5.25768 -5.30391 6.98106 5.15594 -4.97263 7.29806 5.05396 -4.59965 7.65067 4.94157 -4.26344 8.00094 4.82698 -3.92554 8.36307 4.72214 -3.59711 8.74647 4.62849 -3.29013 8.75352 4.62674 -3.28452 6.9456 5.50386 -5.59338 6.80819 5.33893 -6.04495 6.61566 5.24251 -6.49621 6.42077 5.12852 -6.94233 6.22501 5.01503 -7.3882 6.07559 4.92666 -7.85709 5.95398 4.84939 -8.24009 7.27004 5.7469 -5.88608 7.69093 5.5512 -5.70018 8.11062 5.34561 -5.52242 8.53623 5.14722 -5.3507 8.96905 4.95319 -5.19251 9.41571 4.78383 -5.04482 9.68093 4.68034 -4.92953 7.58883 5.98827 -6.18627 7.4118 5.72028 -6.56947 7.26076 5.4619 -6.97 7.08772 5.19666 -7.35693 6.9147 4.93143 -7.74386 6.74171 4.66753 -8.13171 6.67909 4.54572 -8.28155 7.90696 6.23489 -6.48287 8.36604 6.0483 -6.41631 8.82878 5.86048 -6.39192 9.29223 5.67588 -6.3582 9.76176 5.50483 -6.34143 10.2161 5.29772 -6.31548 10.3025 5.25479 -6.30942 8.24404 6.43882 -6.79075 8.27063 5.99814 -7.02547 8.32473 5.56708 -7.27299 8.37643 5.13759 -7.52371 8.43114 4.70982 -7.77674 8.44511 4.30546 -8.04984 8.59076 6.60989 -7.1078 8.35945 6.38155 -7.48774 8.13725 6.14024 -7.8651 7.91961 5.90693 -8.25006 7.67213 5.66322 -8.60974 7.50651 5.47972 -8.89483 8.93989 6.78901 -7.41768 9.30569 6.54394 -7.18075 9.67642 6.31022 -6.94006 9.97782 6.05631 -6.63234 10.245 5.73861 -6.35359 10.3899 5.55755 -6.22707 9.2732 6.94162 -7.7577 9.08985 7.3957 -7.65674 8.92886 7.84871 -7.51941 8.74138 8.30557 -7.4411 8.58435 8.76661 -7.32803 8.53647 8.90384 -7.29665 9.6049 7.06957 -8.10927 9.88713 7.1299 -7.70098 10.178 7.21269 -7.30281 10.4575 7.30625 -6.89894 10.7306 7.3956 -6.48974 10.7477 7.40129 -6.46481 9.93442 7.18885 -8.4659 9.82393 7.64448 -8.29214 9.7649 8.10295 -8.10156 9.69438 8.55721 -7.90489 9.64344 8.94602 -7.78425 10.2572 7.29879 -8.8316 10.1999 7.79047 -8.9021 10.1396 8.28246 -8.96773 10.0914 8.77357 -9.04835 10.0488 9.05205 -9.10444 10.5211 7.40869 -9.24181 10.1485 7.26377 -9.5421 9.77065 7.11776 -9.83519 9.39602 7.03288 -10.1553 9.2747 7.006 -10.2586 10.8201 7.47768 -9.63657 11.1977 7.7162 -9.41174 11.5797 7.95059 -9.19009 11.9472 8.20931 -8.97106 11.9714 8.22668 -8.95612 11.1127 7.55627 -10.0343 10.8874 7.23273 -10.3418 10.6715 6.91533 -10.6622 10.4752 6.66065 -10.9037 11.3633 7.66051 -10.4543 11.6641 7.26742 -10.3836 11.9649 6.87417 -10.3137 12.1172 6.65637 -10.2772 11.6454 7.77456 -10.851 12.0564 7.61293 -10.6166 12.4663 7.45152 -10.3801 12.5716 7.40431 -10.3171 11.9302 7.88418 -11.247 11.728 8.20173 -11.5761 11.535 8.51846 -11.8988 12.2075 7.99711 -11.6475 12.3792 8.38158 -11.3778 12.489 8.63898 -11.1696 12.4931 8.12738 -12.0367 12.9118 8.16127 -11.7655 13.0851 8.16233 -11.6602 12.8074 8.27469 -12.3966 12.6211 7.99169 -12.7643 12.6012 7.96132 -12.8038 13.0941 8.42929 -12.7759 13.1919 8.07878 -12.9449 13.3732 8.57895 -13.1628 13.1658 8.52654 -13.2831 13.6528 8.70575 -13.5575 13.6437 8.63234 -13.6015 0 0 -1.2 -0.480901 -0.0940253 -1.29946 -0.956957 -0.184515 -1.42268 -1.42752 -0.249282 -1.57881 -1.90167 -0.307766 -1.72633 -2.38643 -0.354745 -1.83946 -2.86814 -0.370662 -1.97253 -3.3445 -0.380847 -2.12409 -3.82048 -0.388671 -2.277 -4.30036 -0.366193 -2.41561 -4.7851 -0.355021 -2.53767 -5.27286 -0.343762 -2.64709 -5.74966 -0.313449 -2.79453 -6.21876 -0.247803 -2.95463 -6.68274 -0.200906 -3.13497 -7.14298 -0.140198 -3.3207 -7.60609 -0.0720956 -3.49645 -8.07426 -0.00507454 -3.65873 -8.5386 0.109122 -3.80481 -9.01033 0.220125 -3.92791 -9.4748 0.379936 -4.0213 -9.9395 0.540254 -4.11273 -10.4035 0.699129 -4.20993 -10.8562 0.861675 -4.34659 -11.3035 1.03225 -4.49074 -11.7567 1.16228 -4.65733 -12.1862 1.3273 -4.85303 -12.6025 1.50977 -5.06132 -12.9889 1.70196 -5.31379 -13.3709 1.88812 -5.57735 -13.7534 2.07692 -5.83818 -14.1352 2.26715 -6.09901 -14.5089 2.45131 -6.37546 -14.875 2.63319 -6.66338 -15.2237 2.81574 -6.97172 -15.5706 2.99484 -7.2841 -15.9618 3.16948 -7.54188 -16.3567 3.31747 -7.81051 -16.7496 3.43381 -8.09707 -17.1382 3.55948 -8.38554 -17.5126 3.6824 -8.69327 -17.8814 3.76944 -9.0194 -18.2467 3.8578 -9.34925 -18.6008 3.95221 -9.68942 -18.9498 4.05231 -10.0332 -18.9826 4.06009 -10.0686 -0.480901 -0.0940253 -1.29946 -0.453789 -0.590038 -1.24258 -0.426806 -1.08684 -1.19296 -0.426743 -1.08801 -1.19284 -0.956957 -0.184515 -1.42268 -1.09647 0.268065 -1.58302 -1.21635 0.605144 -1.69235 -1.42752 -0.249282 -1.57881 -1.59143 0.190151 -1.75211 -1.67164 0.405032 -1.83691 -1.90167 -0.307766 -1.72633 -1.87625 -0.0470478 -2.15222 -1.86879 0.0123623 -2.2474 -2.38643 -0.354745 -1.83946 -2.4775 0.11232 -1.88213 -2.86814 -0.370662 -1.97253 -2.83655 -0.611703 -2.21087 -3.3445 -0.380847 -2.12409 -3.44974 -0.373695 -1.95368 -3.82048 -0.388671 -2.277 -3.82827 -0.374567 -2.2217 0 0 -1.2 -0.162143 0.471557 -1.23666 -0.334423 0.936916 -1.29798 -0.477628 1.40699 -1.3903 -0.608898 1.88033 -1.48366 -0.736777 2.35492 -1.57539 -0.882442 2.73708 -1.65219 
</DataArray>
</Points>
<Lines>
<DataArray type="Int32" Name="connectivity" NumberOfComponents="1" format="ascii" >
0 1 2 3 4 5 6 7 8 9 10 11 12 13 14 15 16 17 18 19 20 21 22 23 24 25 26 27 28 29 30 31 32 33 34 35 36 37 38 39 40 41 42 43 44 45 46 47 48 49 50 51 52 53 54 55 56 57 58 59 60 61 62 63 64 65 66 67 68 69 70 71 72 73 74 75 76 77 78 79 80 81 82 83 84 85 86 87 88 89 90 91 92 93 94 95 96 97 98 99 100 101 102 103 104 105 106 107 108 109 110 111 112 113 114 115 116 117 118 119 120 121 122 123 124 125 126 127 128 129 130 131 132 133 134 135 136 137 138 139 140 141 142 143 144 145 146 147 148 149 150 151 152 153 154 155 156 157 158 159 160 161 162 163 164 165 166 167 168 169 170 171 172 173 174 175 176 177 178 179 180 181 182 183 184 185 186 187 188 189 190 191 192 193 194 195 196 197 198 199 200 201 202 203 204 205 206 207 208 209 210 211 212 213 214 215 216 217 218 219 220 221 222 223 224 225 226 227 228 229 230 231 232 233 234 235 236 237 238 239 240 241 242 243 244 245 246 247 248 249 250 251 252 253 254 255 256 257 258 259 260 261 262 263 264 265 266 267 268 269 270 271 272 273 274 275 276 277 278 279 280 281 282 283 284 285 286 287 288 289 290 291 292 293 294 295 296 297 298 299 300 301 302 303 304 305 306 307 308 309 310 311 312 313 314 315 316 317 318 319 320 321 322 323 324 325 326 327 328 329 330 331 332 333 334 335 336 337 338 339 340 341 342 343 344 345 346 347 348 349 350 351 352 353 354 355 356 357 358 359 360 361 362 363 364 365 366 367 368 369 370 371 372 373 374 375 376 377 378 379 380 381 382 383 384 385 386 387 388 389 390 391 392 393 394 395 396 397 398 399 400 401 402 403 404 405 406 407 408 409 410 411 412 413 414 415 416 417 418 419 420 421 422 423 424 425 426 427 428 429 430 431 432 433 434 
</DataArray>
<DataArray type="Int32" Name="offsets" NumberOfComponents="1" format="ascii" >
80 91 101 111 121 131 141 151 160 169 178 187 196 205 213 221 229 237 245 253 260 267 274 281 287 293 299 305 311 316 321 326 331 335 339 343 346 349 352 355 357 359 361 407 411 414 417 420 422 424 426 428 435 
</DataArray>

</Lines>
</Piece>
</PolyData>
</VTKFile>
