<?xml version="1.0"?><VTKFile type="PolyData" version="0.1" byte_order="LittleEndian">
<PolyData>
<Piece NumberOfLines="66" NumberOfPoints="1050">
<PointData Scalars=" PointData">
<DataArray type="Float32" Name="time" NumberOfComponents="1" format="ascii" >
0 0.297077 0.594531 0.894238 1.19275 1.49513 1.77843 2.08344 2.38984 2.397 2.70483 3.01406 3.02829 3.33901 3.63735 3.95089 4.26589 4.27337 4.58988 4.90069 5.22016 5.54115 5.54263 5.86516 6.18923 6.20633 6.53205 6.85934 6.88993 7.21897 7.54961 7.55358 7.88587 8.21981 8.22332 8.55892 8.87373 9.21259 9.55316 9.5635 9.90584 10.2241 10.5698 10.9173 10.934 11.2834 11.6346 11.6445 11.9976 12.3496 12.7064 13.0541 13.4146 13.7357 14.0999 14.4661 14.4742 14.8424 15.2126 15.2133 15.5856 15.9599 15.9763 16.3529 16.6906 17.0711 17.45 17.8348 18.1955 18.5846 18.9759 18.9993 19.3931 19.7892 19.7959 20.1944 20.5952 20.6 21 21.3889 21.7969 22.2073 22.215 22.6281 23.0436 23.05 23.4682 23.889 23.9152 24.3387 24.7613 25.1902 25.616 26.0504 26.4876 26.5284 26.9688 27.4027 27.8488 28 6.62587 7.26681 7.91593 8.57342 9.23951 9.91441 10.5984 11.2917 11.9945 12.7072 13.4299 14.1631 14.907 15.6619 16.4281 17.2061 17.9961 18.7986 19.6139 20.4424 21.2846 22.1411 23.0121 23.8983 24.8002 25.7183 26.6533 27.6057 28 7.28019 7.94202 8.61228 9.29119 9.97897 10.6759 11.3821 12.098 12.8237 13.5596 14.3059 15.063 15.8311 16.6106 17.4018 18.2051 19.0208 19.8494 20.6913 21.5468 22.4165 23.3008 24.2002 25.1153 26.0465 26.9946 27.96 28 7.92133 8.62237 9.33235 10.0515 10.78 11.5182 12.2663 13.0246 13.7933 14.5728 15.3634 16.1653 16.9789 17.8046 18.6427 19.4936 20.3577 21.2353 22.1271 23.0333 23.9545 24.8912 25.844 26.8132 27.7997 28 8.59905 9.23707 9.88322 10.5377 11.2007 11.8726 12.5534 13.2435 13.9431 14.6526 15.372 16.1019 16.8423 17.5938 18.3565 19.1309 19.9173 20.7161 21.5277 22.3525 23.1909 24.0433 24.9104 25.7926 26.6903 27.6042 28 9.29131 9.95127 10.6196 11.2966 11.9824 12.6774 13.3816 14.0954 14.8191 15.5529 16.2971 17.052 17.818 18.5953 19.3842 20.1852 20.9987 21.8249 22.6644 23.5175 24.3847 25.2665 26.1634 27.0759 28 9.9598 10.6445 11.338 12.0404 12.752 13.4731 14.2038 14.9444 15.6953 16.4566 17.2288 18.0121 18.8068 19.6133 20.4319 21.263 22.107 22.9643 23.8353 24.7204 25.6202 26.5352 27.4657 28 10.6585 11.3311 12.0123 12.7022 13.4012 14.1094 14.8272 15.5547 16.2922 17.04 17.7985 18.5679 19.3485 20.1406 20.9447 21.7611 22.5901 23.4322 24.2877 25.1572 26.041 26.9397 27.8537 28 11.3483 11.9831 12.626 13.2772 13.9369 14.6053 15.2827 15.9693 16.6654 17.3712 18.087 18.8132 19.5499 20.2976 21.0565 21.827 22.6094 23.4041 24.2116 25.0322 25.8664 26.7145 27.5772 28 12.0548 12.7299 13.4135 14.1059 14.8074 15.5182 16.2385 16.9687 17.7089 18.4594 19.2206 19.9928 20.7762 21.5713 22.3782 23.1976 24.0296 24.8747 25.7333 26.6059 27.493 28 12.786 13.45 14.1225 14.8037 15.4937 16.1929 16.9015 17.6197 18.3479 19.0862 19.835 20.5946 21.3652 22.1473 22.9411 23.7471 24.5655 25.3968 26.2415 27.0999 27.9724 28 13.5399 14.2044 14.8774 15.5591 16.2497 16.9494 17.6585 18.3773 19.1059 19.8448 20.5942 21.3543 22.1255 22.9082 23.7026 24.5092 25.3282 26.1602 27.0055 27.8645 28 14.2725 14.9547 15.6455 16.3452 17.0541 17.7724 18.5003 19.2382 19.9862 20.7446 21.5138 22.2941 23.0858 23.8892 24.7047 25.5326 26.3734 27.2274 28 15.0127 15.6229 16.2409 16.8669 17.5011 18.1436 18.7948 19.4549 20.124 20.8025 21.4907 22.1887 22.8969 23.6157 24.3452 25.0859 25.838 26.602 27.3782 28 15.7322 16.4402 17.1572 17.8835 18.6193 19.3649 20.1204 20.8863 21.6627 22.4499 23.2483 24.0582 24.88 25.7139 26.5603 27.4197 28 16.496 17.2203 17.9539 18.6969 19.4496 20.2123 20.9853 21.7687 22.563 23.3684 24.1852 25.0137 25.8543 26.7074 27.5734 28 17.2283 17.8798 18.5395 19.2077 19.8847 20.5706 21.2658 21.9704 22.6847 23.409 24.1436 24.8887 25.6448 26.412 27.1908 27.9814 28 18.0162 18.6048 19.201 19.8048 20.4165 21.0363 21.6644 22.3011 22.9466 23.6011 24.2648 24.9382 25.6213 26.3146 27.0183 27.7327 28 18.8057 19.5266 20.2567 20.9962 21.7454 22.5045 23.2738 24.0535 24.8441 25.6456 26.4586 27.2832 28 19.5901 20.2821 20.9829 21.6927 22.4118 23.1405 23.8789 24.6274 25.3862 26.1556 26.9359 27.7275 28 20.3747 21.0114 21.6563 22.3095 22.9713 23.6418 24.3213 25.01 25.7083 26.4163 27.1344 27.8628 28 21.1346 21.8305 22.5352 23.249 23.9721 24.7048 25.4474 26.2 26.9631 27.7368 28 21.9591 22.6105 23.2701 23.9383 24.6152 25.3011 25.9962 26.7007 27.415 28 22.7853 23.4178 24.0582 24.707 25.3642 26.0301 26.705 27.389 28 23.6394 24.3005 24.9701 25.6483 26.3353 27.0315 27.737 28 24.4399 25.1197 25.8082 26.5055 27.212 27.9278 28 25.2921 25.902 26.5197 27.1454 27.7793 28 26.1299 26.8027 27.4841 28 27.0345 27.6956 28 27.9324 28 7 7.3234 7.6387 7.96488 8.28843 8.61747 8.94796 8.95179 9.28377 9.61265 9.94758 10.2783 10.6162 10.9371 11.278 11.6205 11.6213 11.9654 12.3054 12.6527 13.0015 13.0229 13.3735 13.7258 13.7636 14.1177 14.4735 14.4782 14.8357 15.1949 15.2267 15.5878 15.9135 16.278 16.6104 16.9783 17.348 17.3606 17.7322 18.1057 18.1075 18.4829 18.8342 19.2132 19.5942 19.6058 19.9888 20.3738 20.3882 20.7752 21.1574 21.5485 21.9324 22.3275 22.7247 22.7501 23.1496 23.5512 23.5563 23.9602 24.3662 24.3698 24.7781 25.1886 25.1982 25.6111 26.0194 26.4368 26.8426 27.2646 27.6891 27.7077 28 14.3201 15.0099 15.7085 16.4162 17.1331 17.8594 18.5956 19.3417 20.0982 20.8652 21.6431 22.4322 23.2328 24.0453 24.87 25.7073 26.5576 27.4213 28 15.0309 15.7068 16.3913 17.0846 17.787 18.4988 19.22 19.9511 20.6923 21.4438 22.206 22.9792 23.7636 24.5597 25.3677 26.1881 27.0212 27.8674 28 15.7572 16.4157 17.0826 17.7581 18.4424 19.1358 19.8386 20.5508 21.2729 22.0051 22.7477 23.501 24.2652 25.0408 25.8281 26.6274 27.439 28 16.4813 17.1744 17.8763 18.5873 19.3076 20.0374 20.777 21.5267 22.2867 23.0573 23.8389 24.6317 25.4361 26.2524 27.081 27.9222 28 17.2114 17.8277 18.4518 19.084 19.7245 20.3734 21.0311 21.6977 22.3735 23.0587 23.7537 24.4587 25.1739 25.8998 26.6366 27.3846 28 17.9346 18.6711 19.4171 20.1726 20.9381 21.7136 22.4996 23.2963 24.1039 24.9229 25.7535 26.596 27.4508 28 18.6863 19.3073 19.9362 20.5732 21.2186 21.8725 22.5352 23.2069 23.8879 24.5784 25.2787 25.989 26.7098 27.4412 28 19.4386 20.1292 20.8287 21.5371 22.2548 22.9821 23.719 24.4661 25.2234 25.9913 26.7701 27.5601 28 20.2283 20.9146 21.6095 22.3135 23.0266 23.7492 24.4815 25.2238 25.9763 26.7393 27.5131 28 21.0444 21.7032 22.3703 23.046 23.7306 24.4243 25.1272 25.8397 26.5621 27.2945 28 21.8325 22.4993 23.1746 23.8587 24.5517 25.2538 25.9654 26.6867 27.4179 28 22.6589 23.3207 23.9909 24.6697 25.3575 26.0543 26.7605 27.4763 28 23.4179 24.1231 24.8372 25.5606 26.2934 27.0359 27.7884 28 24.1888 24.8329 25.4851 26.1458 26.8151 27.4933 28 25.0195 25.7101 26.4095 27.118 27.8357 28 25.8475 26.5245 27.2101 27.9046 28 26.6539 27.3354 28 27.5112 28 14 14.2584 14.5164 14.7768 15.0382 15.0509 15.3135 15.5623 15.8269 16.0926 16.0945 16.3613 16.6292 16.6445 16.9135 17.1826 17.4539 17.7262 17.7318 18.0053 18.28 18.3096 18.5855 18.8607 19.139 19.4184 19.4254 19.706 19.9877 20.2708 20.5552 20.5566 20.8422 21.129 21.1517 21.4399 21.7293 21.7474 22.0382 22.3303 22.3602 22.6537 22.9435 23.2396 23.5332 23.832 24.1312 24.4328 24.7236 25.028 25.3337 25.3602 25.6675 25.9763 25.9947 26.305 26.6167 26.6267 26.94 27.2486 27.5649 27.8667 28 20.2499 20.9475 21.6541 22.3697 23.0947 23.8293 24.5738 25.3284 26.0934 26.8691 27.6558 28 20.8335 21.4298 22.0337 22.6454 23.265 23.8929 24.5292 25.1742 25.8281 26.4911 27.1635 27.8456 28 21.3922 22.0185 22.6529 23.2954 23.9463 24.6059 25.2743 25.9518 26.6386 27.3351 28 21.974 22.6794 23.3937 24.1173 24.8503 25.593 26.3457 27.1086 27.882 28 22.5757 23.2124 23.8571 24.5102 25.1718 25.8421 26.5215 27.2101 27.9082 28 23.165 23.8413 24.5261 25.2198 25.9226 26.6346 27.3562 28 23.7668 24.3869 25.0149 25.651 26.2955 26.9484 27.6102 28 24.4005 25.1223 25.8534 26.5938 27.344 28 25.0055 25.6982 26.3997 27.1102 27.8301 28 25.6259 26.3591 27.1016 27.8537 28 26.2442 26.8592 27.482 28 26.8702 27.5075 28 27.5257 28 21 21.2745 21.5433 21.8201 22.0904 22.3696 22.6373 22.9188 23.2016 23.2198 23.5039 23.7892 23.8098 24.0965 24.3623 24.6515 24.942 24.958 25.2499 25.5164 25.8107 26.1065 26.1117 26.4088 26.6896 26.9893 27.2861 27.5886 27.8845 28 27.3598 28 27.9585 28 
</DataArray>

</PointData>
<CellData Scalars=" CellData">
<DataArray type="Float32" Name="radius" NumberOfComponents="1" format="ascii" >
0.131367 0.0488901 0.0536881 0.0424739 0.0521405 0.0478435 0.055187 0.034042 0.0481177 0.0573367 0.0479867 0.0472303 0.0540673 0.0448606 0.0524283 0.0455409 0.0462274 0.0548176 0.0524203 0.0447021 0.0547129 0.047084 0.0601826 0.0520463 0.051904 0.047907 0.0510342 0.0494043 0.0498415 0.0488909 0.141925 0.060763 0.0464132 0.0505033 0.0501495 0.0470279 0.0469064 0.0512052 0.0382487 0.0462349 0.0580152 0.0576586 0.0444988 0.0549632 0.0523612 0.0483728 0.0427821 0.046771 0.0493679 0.125024 0.0568258 0.0543042 0.0531235 0.0513252 0.0404243 0.0475817 0.0488524 0.0471623 0.0507857 0.0504619 0.0540698 0.0520736 0.0412953 0.118594 0.0492777 0.0491942 
</DataArray>
<DataArray type="Float32" Name="subType" NumberOfComponents="1" format="ascii" >
1 2 2 2 2 2 2 2 2 2 2 2 2 2 2 2 2 2 2 2 2 2 2 2 2 2 2 2 2 2 4 2 2 2 2 2 2 2 2 2 2 2 2 2 2 2 2 2 2 4 2 2 2 2 2 2 2 2 2 2 2 2 2 4 2 2 
</DataArray>
<DataArray type="Float32" Name="creationTime" NumberOfComponents="1" format="ascii" >
0 6.62587 7.28019 7.92133 8.59905 9.29131 9.9598 10.6585 11.3483 12.0548 12.786 13.5399 14.2725 15.0127 15.7322 16.496 17.2283 18.0162 18.8057 19.5901 20.3747 21.1346 21.9591 22.7853 23.6394 24.4399 25.2921 26.1299 27.0345 27.9324 7 14.3201 15.0309 15.7572 16.4813 17.2114 17.9346 18.6863 19.4386 20.2283 21.0444 21.8325 22.6589 23.4179 24.1888 25.0195 25.8475 26.6539 27.5112 14 20.2499 20.8335 21.3922 21.974 22.5757 23.165 23.7668 24.4005 25.0055 25.6259 26.2442 26.8702 27.5257 21 27.3598 27.9585 
</DataArray>

</CellData>
<Points>
<DataArray type="Float32" Name="Coordinates" NumberOfComponents="3" format="ascii" >
0 0 -3 -0.618814 0.598107 -3.50925 -1.23165 1.02402 -4.17015 -1.88806 1.38264 -4.83387 -2.43351 1.75099 -5.57555 -2.95998 2.1177 -6.34259 -3.352 2.31329 -7.16618 -3.73561 2.55141 -8.05845 -4.07421 2.74245 -8.97978 -4.08222 2.74735 -9.00111 -4.42749 2.95885 -9.91547 -4.7149 3.23902 -10.8314 -4.72843 3.25197 -10.8733 -5.02321 3.53408 -11.7863 -5.16754 3.79078 -12.6956 -5.34694 4.0198 -13.6523 -5.5582 4.25096 -14.602 -5.56304 4.25641 -14.6246 -5.75849 4.43826 -15.5883 -5.89683 4.62107 -16.5385 -6.0421 4.80407 -17.5108 -6.25454 5.04278 -18.4584 -6.25548 5.04388 -18.4627 -6.58043 5.22143 -19.3916 -6.90245 5.26465 -20.3374 -6.9189 5.26615 -20.3874 -7.17421 5.17455 -21.3499 -7.39116 5.037 -22.3163 -7.41143 5.02436 -22.4064 -7.57919 4.94486 -23.3891 -7.7056 4.8698 -24.3782 -7.7069 4.86866 -24.39 -7.73979 4.71557 -25.3777 -7.73684 4.52093 -26.3586 -7.73687 4.51903 -26.3689 -7.70235 4.42795 -27.3641 -7.65806 4.33912 -28.2924 -7.61607 4.22215 -29.2846 -7.58583 4.1045 -30.2772 -7.58488 4.10108 -30.3073 -7.53841 4.10709 -31.3062 -7.60603 4.09764 -32.2287 -7.68491 4.09721 -33.2256 -7.72575 4.14183 -34.2238 -7.72794 4.14229 -34.2716 -7.71353 4.1866 -35.2706 -7.72747 4.27236 -36.2668 -7.72818 4.27488 -36.2949 -7.74718 4.36875 -37.2903 -7.76921 4.46261 -38.2775 -7.80928 4.53876 -39.2738 -7.85706 4.60778 -40.2396 -7.90893 4.66763 -41.2364 -7.85071 4.62852 -42.1196 -7.79531 4.59 -43.1174 -7.75437 4.551 -44.1158 -7.75396 4.54999 -44.1379 -7.74061 4.51585 -45.1372 -7.7606 4.53961 -46.1367 -7.76063 4.53966 -46.1386 -7.7084 4.47986 -47.1354 -7.66077 4.48297 -48.1343 -7.65838 4.48325 -48.1779 -7.62826 4.43133 -49.1761 -7.63995 4.42228 -50.0683 -7.6429 4.39997 -51.0681 -7.58477 4.45687 -52.0547 -7.5675 4.48974 -53.054 -7.49243 4.49893 -53.983 -7.46332 4.49522 -54.9826 -7.44713 4.4818 -55.9824 -7.44687 4.47933 -56.0418 -7.45115 4.42631 -57.0403 -7.36372 4.40019 -58.0362 -7.36209 4.39965 -58.0531 -7.34886 4.32099 -59.0499 -7.35801 4.21398 -60.0441 -7.35813 4.21271 -60.056 -7.44618 4.073 -61.0341 -7.5034 4.14172 -61.9887 -7.58658 4.15666 -62.9851 -7.64038 4.1887 -63.9831 -7.64136 4.18927 -64.0017 -7.66325 4.2654 -64.9986 -7.77252 4.34193 -65.9897 -7.77419 4.34294 -66.0048 -7.75936 4.28426 -67.003 -7.7353 4.26289 -68.0025 -7.73414 4.2622 -68.0645 -7.81501 4.1522 -69.0551 -7.81798 4.08264 -70.044 -7.82542 4.00863 -71.0413 -7.87354 3.9228 -72.0227 -7.97369 3.83337 -73.0136 -8.0746 3.77974 -74.0071 -8.08226 3.77455 -74.0997 -8.15815 3.71768 -75.0952 -8.2582 3.6505 -76.0669 -8.31416 3.62741 -77.065 -8.31174 3.60337 -77.4016 -1.23165 1.02402 -4.17015 -1.67241 0.188854 -4.49913 -2.13424 -0.61134 -4.88175 -2.59645 -1.4598 -5.13958 -3.05097 -2.31523 -5.38788 -3.49125 -3.19558 -5.56436 -4.00357 -3.96411 -5.94761 -4.53117 -4.72591 -6.32352 -5.08046 -5.48439 -6.67422 -5.62881 -6.22412 -7.06424 -6.18679 -6.96225 -7.44346 -6.68146 -7.78498 -7.72352 -7.17378 -8.60904 -8.00378 -7.59931 -9.44647 -8.34674 -8.01369 -10.2966 -8.67175 -8.46372 -11.1289 -8.99531 -8.98869 -11.891 -9.37426 -9.5344 -12.6287 -9.77185 -10.1881 -13.3249 -10.0684 -10.8244 -14.0324 -10.376 -11.4776 -14.7553 -10.6012 -12.2277 -15.3807 -10.8162 -12.9846 -16.007 -11.0027 -13.7063 -16.6355 -11.2928 -14.3842 -17.3559 -11.4394 -14.9974 -18.1016 -11.6998 -15.5922 -18.8633 -11.957 -16.0888 -19.6646 -12.2907 -16.2918 -19.9917 -12.4273 -2.43351 1.75099 -5.57555 -2.93363 2.46135 -5.0803 -3.40254 3.14733 -4.52393 -3.83899 3.8641 -3.98009 -4.271 4.57472 -3.42477 -4.57724 5.28464 -2.79055 -4.75193 5.99658 -2.11039 -4.92828 6.68514 -1.40698 -5.12972 7.39879 -0.736056 -5.33387 8.11857 -0.0725553 -5.62574 8.88475 0.499971 -5.8325 9.69135 1.05372 -5.98547 10.5029 1.61756 -6.15007 11.3222 2.16691 -6.33946 12.1508 2.69364 -6.52897 12.9021 3.32583 -6.80447 13.6077 3.97872 -7.13484 14.2714 4.64977 -7.46539 14.9358 5.32015 -7.83427 15.6379 5.92913 -8.16281 16.3391 6.56197 -8.58309 16.9358 7.24552 -8.98719 17.5673 7.90728 -9.40478 18.2085 8.55105 -9.90723 18.8658 9.11283 -10.4086 19.6403 9.49847 -10.8596 20.4256 9.92263 -10.8785 20.4577 9.93998 -3.352 2.31329 -7.16618 -2.55707 2.91933 -7.19448 -1.70706 3.4459 -7.17996 -0.909392 4.03376 -7.31468 -0.101129 4.58395 -7.52443 0.751991 5.1041 -7.5649 1.62496 5.58802 -7.62607 2.51453 6.02328 -7.76466 3.38273 6.48621 -7.94334 4.23801 7.00354 -7.97295 5.02683 7.61027 -8.07116 5.73182 8.315 -8.15082 6.44483 9.01142 -8.23215 7.21969 9.63519 -8.33459 8.02302 10.2242 -8.42266 8.83411 10.8035 -8.50361 9.64137 11.3928 -8.53567 10.4488 11.9822 -8.56197 11.2806 12.5364 -8.59198 12.112 13.0884 -8.52826 12.9262 13.6653 -8.46255 13.7461 14.2345 -8.40109 14.5663 14.8041 -8.3483 15.3896 15.3677 -8.41618 16.2158 15.9229 -8.51174 16.3811 16.0354 -8.53167 -4.08222 2.74735 -9.00111 -4.93053 3.08899 -8.59658 -5.7992 3.361 -8.18255 -6.71739 3.6108 -7.87509 -7.63001 3.88713 -7.57382 -8.54611 4.13315 -7.25722 -9.47432 4.33862 -6.94706 -10.4007 4.6457 -6.72886 -11.2864 5.07421 -6.55041 -12.229 5.38851 -6.4375 -13.1578 5.70583 -6.24631 -14.0121 6.18444 -6.04351 -14.9176 6.59283 -5.92794 -15.8392 6.95297 -5.78339 -16.6852 7.40777 -5.5051 -17.5319 7.85491 -5.21683 -18.3325 8.34069 -4.86596 -19.1378 8.86928 -4.59753 -19.9976 9.32699 -4.37109 -20.866 9.76951 -4.14742 -21.7263 10.2388 -3.94813 -22.6181 10.6625 -3.78954 -23.5678 10.9304 -3.62714 -24.5151 11.2143 -3.47915 -25.4707 11.4884 -3.37111 -26.427 11.7574 -3.25619 -26.836 11.8727 -3.21025 -4.72843 3.25197 -10.8733 -5.01482 2.33573 -11.1534 -5.35014 1.44521 -11.4609 -5.69044 0.552762 -11.7571 -6.04045 -0.336339 -12.052 -6.3482 -1.24098 -12.3468 -6.63803 -2.15797 -12.6209 -7.03366 -3.04849 -12.8456 -7.43819 -3.93351 -13.076 -7.68968 -4.86006 -13.3557 -7.9718 -5.79056 -13.5893 -8.27662 -6.72065 -13.7943 -8.58472 -7.63749 -14.0483 -8.9114 -8.5524 -14.2853 -9.19037 -9.46651 -14.5796 -9.47438 -10.3819 -14.8648 -9.79191 -11.2498 -15.2468 -10.1577 -12.1363 -15.5302 -10.5257 -13.0233 -15.8092 -10.975 -13.8516 -16.144 -11.4169 -14.6878 -16.4689 -11.86 -15.5469 -16.7249 -12.1975 -16.4679 -16.9194 -12.4927 -17.3984 -17.1363 -12.846 -18.2983 -17.3727 -5.16754 3.79078 -12.6956 -4.18472 3.95425 -12.7812 -3.20225 4.13939 -12.8033 -2.20986 4.26191 -12.8156 -1.21671 4.37876 -12.8138 -0.227717 4.51565 -12.8699 0.771425 4.5545 -12.8843 1.76555 4.66176 -12.8986 2.76056 4.7554 -12.933 3.75745 4.83135 -12.954 4.75341 4.92081 -12.9619 5.75157 4.97886 -12.9793 6.74402 5.01767 -13.0958 7.74325 5.02499 -13.1343 8.73951 4.95672 -13.1872 9.73424 5.05654 -13.164 10.7209 5.18836 -13.0688 11.7066 5.33313 -12.9827 12.6849 5.5381 -12.9513 13.6695 5.71171 -12.932 14.6482 5.91694 -12.9249 15.6429 5.98049 -12.8432 16.635 5.96042 -12.7197 17.1948 5.95495 -12.6335 -5.56304 4.25641 -14.6246 -5.46475 3.28973 -14.8609 -5.32477 2.34045 -15.1425 -5.17349 1.40158 -15.4517 -5.07208 0.468192 -15.796 -4.90927 -0.445988 -16.1672 -4.72727 -1.36105 -16.5271 -4.55107 -2.28474 -16.8673 -4.41027 -3.21478 -17.2067 -4.20455 -4.14044 -17.5242 -3.75238 -4.99336 -17.7852 -3.30276 -5.84552 -18.0528 -2.85908 -6.71729 -18.2606 -2.3794 -7.56042 -18.5036 -1.87089 -8.4105 -18.6406 -1.34665 -9.24282 -18.8206 -0.945005 -10.1529 -18.9232 -0.607287 -11.0746 -19.114 -0.263758 -12.0097 -19.2004 0.0956547 -12.935 -19.3214 0.372869 -13.8935 -19.3887 0.644691 -14.8556 -19.369 0.891021 -15.8211 -19.4535 0.925317 -15.9755 -19.4636 -5.89683 4.62107 -16.5385 -5.2484 5.35841 -16.7279 -4.55319 6.05166 -16.9178 -3.82713 6.69141 -17.1699 -3.06071 7.27601 -17.4361 -2.2505 7.78141 -17.733 -1.50443 8.4092 -17.9549 -0.800786 9.08802 -18.1649 -0.0657427 9.75518 -18.2857 0.575879 10.5064 -18.4404 1.19941 11.2705 -18.606 1.89573 11.969 -18.7709 2.59339 12.6625 -18.951 3.26178 13.3693 -19.1826 3.94952 14.0702 -19.3715 4.61157 14.81 -19.4919 5.28377 15.5347 -19.6431 5.90901 16.3076 -19.7512 6.57084 17.0559 -19.7963 7.2454 17.7937 -19.8223 7.8482 18.5849 -19.9251 8.46418 19.3458 -20.1293 9.07897 20.0857 -20.4023 9.35534 20.4589 -20.5382 -6.25548 5.04388 -18.4627 -5.34783 5.01914 -18.8817 -4.49603 5.13881 -19.3917 -3.63093 5.34419 -19.8494 -2.70125 5.49613 -20.1849 -1.74855 5.5549 -20.4831 -0.807561 5.57651 -20.8209 0.139229 5.61772 -21.1401 1.06859 5.64905 -21.5079 1.97367 5.74015 -21.9233 2.87638 5.83373 -22.3432 3.78671 5.76423 -22.7512 4.6809 5.67413 -23.1897 5.57992 5.5844 -23.6184 6.50984 5.55491 -23.9849 7.43909 5.51349 -24.3521 8.35438 5.5967 -24.7462 9.24556 5.77032 -25.1653 10.0896 5.89064 -25.6879 10.9418 5.92039 -26.2103 11.8062 6.00781 -26.7054 12.2885 6.0569 -26.994 -6.9189 5.26615 -20.3874 -6.76267 6.25378 -20.4007 -6.64331 7.24625 -20.3733 -6.59334 8.24169 -20.4546 -6.58994 9.24168 -20.451 -6.5694 10.2393 -20.3856 -6.57893 11.2349 -20.2921 -6.54742 12.2233 -20.1439 -6.44896 13.1947 -19.9277 -6.36883 14.1713 -19.7278 -6.28667 15.1492 -19.5356 -6.18271 16.1412 -19.4639 -6.01729 17.1181 -19.3289 -5.82832 18.0929 -19.2101 -5.68395 19.076 -19.0978 -5.45846 20.0503 -19.0973 -5.24539 21.0272 -19.0879 -4.94212 21.9789 -19.0386 -4.65056 22.9202 -18.8686 -4.37547 23.858 -18.6566 -4.03133 24.7849 -18.507 -4.02074 24.814 -18.5021 -7.41143 5.02436 -22.4064 -8.32673 4.67588 -22.2045 -9.25145 4.41681 -21.9256 -10.1808 4.10937 -21.721 -11.1071 3.82497 -21.4738 -12.0477 3.56465 -21.2562 -13.0002 3.29688 -21.1109 -13.9496 2.99353 -21.0294 -14.8995 2.69151 -20.9486 -15.876 2.48482 -20.8888 -16.84 2.25204 -20.7601 -17.8031 2.10312 -20.5361 -18.7606 1.94164 -20.2968 -19.7104 1.76603 -20.038 -20.5901 1.34384 -19.8193 -21.5157 0.994417 -19.6733 -22.4377 0.619312 -19.5773 -23.3598 0.248347 -19.4674 -24.2845 -0.107713 -19.333 -25.2083 -0.399272 -19.0847 -25.3522 -0.447149 -19.0471 -7.7069 4.86866 -24.39 -6.92199 5.45112 -24.6014 -6.08258 5.9924 -24.6503 -5.24762 6.52866 -24.5267 -4.35516 6.95087 -24.3678 -3.52989 7.49403 -24.2131 -2.7027 8.03243 -24.0523 -1.85737 8.51199 -23.8168 -1.01156 9.00223 -23.6065 -0.298708 9.69864 -23.5236 0.345405 10.4613 -23.465 0.944658 11.2617 -23.4488 1.69483 11.9228 -23.4339 2.47127 12.5525 -23.4084 3.31329 13.0866 -23.3331 4.15384 13.6227 -23.2549 5.00145 14.1413 -23.1424 5.84684 14.64 -22.9512 6.60789 15.0771 -22.7965 -7.73687 4.51903 -26.3689 -8.62905 4.06966 -26.3232 -9.53796 3.65423 -26.2872 -10.4482 3.24216 -26.2467 -11.35 2.81912 -26.1581 -12.2449 2.40475 -25.9926 -13.1402 1.98874 -25.8331 -14.028 1.54974 -25.6949 -14.9006 1.09139 -25.526 -15.788 0.64112 -25.4272 -16.6763 0.193798 -25.3238 -17.6049 -0.171187 -25.2561 -18.5151 -0.579748 -25.1883 -19.4173 -0.99918 -25.0878 -20.3351 -1.39283 -25.0359 -21.2645 -1.73319 -24.8932 -22.1869 -2.11809 -24.9241 -23.0991 -2.52721 -24.9493 -23.9954 -2.96913 -24.985 -24.7049 -3.31544 -24.9733 -7.65806 4.33912 -28.2924 -7.11551 5.17879 -28.2682 -6.56446 6.01061 -28.2017 -6.01704 6.84397 -28.1252 -5.44269 7.66218 -28.1507 -4.87363 8.4831 -28.1982 -4.36065 9.33724 -28.2837 -3.84512 10.1905 -28.3626 -3.31222 11.0301 -28.4679 -2.77171 11.8525 -28.6451 -2.27045 12.6971 -28.8333 -1.62461 13.4477 -28.9728 -1.07927 14.2718 -29.1261 -0.509123 15.0931 -29.1483 0.131308 15.8597 -29.1937 0.780293 16.5944 -29.3914 1.22945 17.076 -29.495 -7.58488 4.10108 -30.3073 -7.38114 5.0213 -30.6415 -7.13743 5.94344 -30.9419 -6.95664 6.88627 -31.2219 -6.63603 7.82413 -31.3547 -6.34067 8.76457 -31.523 -5.97042 9.67502 -31.7074 -5.56826 10.5305 -32.0337 -5.17638 11.4219 -32.2612 -4.77945 12.3067 -32.5052 -4.40596 13.1996 -32.7568 -4.05326 14.1061 -32.989 -3.74969 15.0183 -33.264 -3.44725 15.9332 -33.5314 -3.16575 16.8717 -33.7312 -3.01975 17.3236 -33.8402 -7.60603 4.09764 -32.2287 -7.44316 3.12396 -32.3882 -7.28062 2.13883 -32.4438 -7.08684 1.15858 -32.4834 -6.88835 0.180999 -32.5536 -6.68503 -0.788926 -32.6874 -6.41051 -1.74698 -32.7697 -6.19239 -2.72082 -32.8334 -5.95811 -3.69247 -32.8015 -5.71406 -4.66202 -32.7813 -5.3525 -5.59425 -32.7662 -5.03012 -6.53942 -32.714 -4.67909 -7.47392 -32.655 -4.50201 -8.45784 -32.6783 -4.22611 -9.41712 -32.7387 -4.07636 -10.4049 -32.7821 -4.07286 -10.4279 -32.7832 -7.72794 4.14229 -34.2716 -8.18266 3.25167 -34.2674 -8.60008 2.34302 -34.2785 -9.1251 1.49584 -34.197 -9.65873 0.651469 -34.1492 -10.1625 -0.212149 -34.1696 -10.5776 -1.11743 -34.2596 -10.8905 -2.06713 -34.247 -11.3991 -2.92756 -34.2145 -11.9054 -3.78903 -34.1758 -12.3919 -4.66268 -34.1801 -12.9047 -5.51895 -34.1176 -13.4214 -6.37356 -34.0662 -13.9377 -7.22902 -34.0253 -14.3949 -8.1166 -33.9695 -14.8512 -9.00638 -33.9588 -15.0324 -9.32878 -33.9432 -7.72818 4.27488 -36.2949 -7.159 3.482 -36.5126 -6.66425 2.65328 -36.7742 -6.16362 1.85873 -37.1178 -5.78105 1.04752 -37.56 -5.42913 0.244476 -38.0409 -5.18806 -0.634205 -38.453 -4.88001 -1.47764 -38.8931 -4.55191 -2.23491 -39.4578 -3.9979 -2.94314 -39.8954 -3.48252 -3.63133 -40.4061 -3.0055 -4.29284 -40.9848 -2.71023 -4.91912 -41.4908 -7.76921 4.46261 -38.2775 -6.8672 4.05287 -38.4134 -5.96408 3.65141 -38.5658 -5.0763 3.20378 -38.6729 -4.14003 2.91209 -38.8687 -3.1979 2.62421 -39.0405 -2.2717 2.25291 -39.1059 -1.32583 1.93669 -39.1789 -0.408456 1.56884 -39.3309 0.519781 1.21217 -39.4366 1.43339 0.829709 -39.5746 2.32256 0.383853 -39.6775 2.62467 0.228644 -39.7073 -7.85706 4.60778 -40.2396 -6.87221 4.74862 -40.1385 -5.93035 5.07585 -40.2148 -4.96883 5.34935 -40.1885 -4.00111 5.60127 -40.1813 -3.01924 5.79063 -40.1892 -2.03315 5.95472 -40.1625 -1.04604 6.10322 -40.1029 -0.0861887 6.34374 -39.9585 0.895485 6.41311 -39.781 1.86608 6.49278 -39.5539 2.83686 6.53812 -39.3182 3.01673 6.5307 -39.2684 -7.85071 4.62852 -42.1196 -7.52034 5.56154 -41.9771 -7.21281 6.49528 -41.7939 -6.90307 7.43889 -41.677 -6.58114 8.38017 -41.5753 -6.33908 9.32865 -41.3708 -6.07976 10.2703 -41.1564 -5.807 11.2116 -40.9572 -5.52426 12.1628 -40.8336 -5.24081 13.1017 -40.6385 -5.14551 13.4201 -40.5822 -7.75396 4.54999 -44.1379 -6.80438 4.23752 -44.1638 -5.84835 3.94884 -44.1122 -4.90217 3.63956 -44.0169 -3.94832 3.34555 -43.9559 -2.96018 3.19874 -43.9108 -1.96812 3.07861 -43.8734 -0.973076 2.97929 -43.877 0.0171272 2.84196 -43.9023 0.816664 2.72056 -43.9179 -7.76063 4.53966 -46.1386 -8.73951 4.33947 -46.0971 -9.71341 4.11559 -46.0597 -10.6867 3.88735 -46.0367 -11.6448 3.64814 -45.8789 -12.6171 3.44702 -45.7598 -13.5951 3.2712 -45.6478 -14.5615 3.06298 -45.4966 -15.383 2.79361 -45.3237 -7.65838 4.48325 -48.1779 -6.71742 4.15901 -48.0807 -5.76487 3.85564 -48.1055 -4.81352 3.54861 -48.1312 -3.86649 3.22823 -48.1538 -2.9215 2.90152 -48.1693 -1.96401 2.61405 -48.1934 -1.62299 2.47265 -48.1824 -7.63995 4.42228 -50.0683 -8.24151 5.2177 -49.9946 -8.82882 6.02284 -49.9121 -9.29196 6.90359 -49.8132 -9.7073 7.81011 -49.7376 -10.1916 8.67787 -49.6262 -10.2433 8.76284 -49.6149 -7.58477 4.45687 -52.0547 -6.59406 4.35294 -52.1425 -5.59804 4.28981 -52.2054 -4.60507 4.20972 -52.2925 -3.62571 4.05999 -52.4283 -3.28143 4.05461 -52.4529 -7.49243 4.49893 -53.983 -7.08519 3.58926 -53.9015 -6.7483 2.65065 -53.9758 -6.50412 1.94359 -54.0046 -7.44687 4.47933 -56.0418 -6.67665 3.85265 -56.1602 -6.31955 3.57413 -56.2159 -7.36209 4.39965 -58.0531 -7.39397 4.49008 -58.0765 0 0 -3 0.490425 -0.670144 -3.55713 0.966438 -1.31516 -4.10474 1.45848 -1.97638 -4.67102 1.92648 -2.60699 -5.27 2.40128 -3.24895 -5.87204 2.79229 -3.86314 -6.55752 2.79706 -3.87014 -6.56543 3.21513 -4.4781 -7.24042 3.71196 -5.05019 -7.87183 4.27521 -5.54742 -8.53176 4.81215 -5.90648 -9.27275 5.37596 -6.22905 -10.0331 5.9106 -6.53745 -10.7492 6.50309 -6.84552 -11.4935 7.11804 -7.1292 -12.2293 7.11938 -7.12981 -12.2309 7.73805 -7.41384 -12.9634 8.27369 -7.74379 -13.7198 8.77118 -8.00725 -14.5463 9.29554 -8.26806 -15.3569 9.32763 -8.28399 -15.4064 9.85301 -8.5541 -16.2132 10.3587 -8.82423 -17.0326 10.4114 -8.85079 -17.1219 10.9426 -8.96389 -17.9615 11.4748 -9.07489 -18.8009 11.4816 -9.07648 -18.8119 11.9845 -9.22837 -19.6628 12.2839 -9.25757 -20.6165 12.3122 -9.25657 -20.7001 12.6166 -9.19655 -21.6507 12.8302 -9.18923 -22.5226 12.9192 -8.98722 -23.4979 12.9714 -8.87082 -24.3968 13.062 -8.73846 -25.3838 13.177 -8.78802 -26.376 13.1802 -8.78933 -26.4097 13.2237 -8.85116 -27.4068 13.2175 -8.83438 -28.4066 13.2175 -8.8343 -28.4115 13.0972 -8.87747 -29.4033 12.917 -8.88568 -30.3171 12.7928 -8.69458 -31.2908 12.6512 -8.49929 -32.2613 12.6464 -8.49322 -32.2908 12.4814 -8.26646 -33.2507 12.3355 -8.02582 -34.2103 12.3298 -8.01679 -34.246 12.348 -7.76322 -35.2131 12.3379 -7.56714 -36.1759 12.3371 -7.4609 -37.1702 12.3245 -7.34576 -38.14 12.3103 -7.23614 -39.1338 12.2624 -7.18277 -40.1313 12.2585 -7.1802 -40.1949 12.2872 -7.16923 -41.1944 12.3154 -7.16077 -42.194 12.3157 -7.16054 -42.2067 12.3226 -7.0641 -43.202 12.3443 -6.87978 -44.1846 12.3445 -6.87814 -44.1933 12.3998 -6.7313 -45.1809 12.4627 -6.59698 -46.1699 12.4645 -6.59487 -46.1931 12.4567 -6.37018 -47.1675 12.3604 -6.15314 -48.1221 12.2691 -6.04351 -49.1119 12.2901 -5.93584 -50.0725 12.3086 -5.83205 -51.0669 12.3113 -5.73426 -52.0621 12.3115 -5.72967 -52.1057 12.375 -5.73657 -52.7879 0.966438 -1.31516 -4.10474 0.894691 -2.10972 -3.50181 0.878999 -2.92342 -2.92073 1.0526 -3.7278 -2.35255 1.22614 -4.50181 -1.74363 1.4746 -5.39728 -1.3743 1.64125 -6.26472 -0.905488 1.75496 -7.15789 -0.470391 1.92041 -8.04561 -0.0407545 1.94846 -8.90499 0.469813 1.9597 -9.76464 0.980564 1.90067 -10.5955 1.53394 1.8299 -11.4252 2.08759 1.70208 -12.2904 2.57255 1.56447 -13.1428 3.07694 1.42509 -13.9932 3.58436 1.22586 -14.8228 4.10592 1.04321 -15.6244 4.67514 0.97986 -16.1503 5.07106 1.92648 -2.60699 -5.27 1.47048 -3.42143 -4.91118 1.02092 -4.24741 -4.57109 0.541419 -5.07839 -4.28904 0.156568 -5.98258 -4.10375 -0.224538 -6.88672 -3.91066 -0.601755 -7.7976 -3.74333 -0.974166 -8.70179 -3.53414 -1.23322 -9.62945 -3.26518 -1.52037 -10.5494 -2.99832 -1.8029 -11.4989 -2.86178 -2.0651 -12.4262 -2.5946 -2.43187 -13.324 -2.35076 -2.80001 -14.2144 -2.08305 -3.17262 -15.0851 -1.76225 -3.51335 -15.9549 -1.40533 -3.94055 -16.7899 -1.05853 -4.36955 -17.6223 -0.707625 -4.43629 -17.7517 -0.653666 2.79706 -3.87014 -6.56543 1.87273 -4.06061 -6.89609 0.899844 -4.12895 -7.11705 -0.0908187 -4.08844 -7.24723 -1.08244 -4.04437 -7.36867 -2.07626 -4.10732 -7.46008 -3.07092 -4.13179 -7.5603 -4.03559 -4.12838 -7.82375 -5.01788 -4.05674 -7.99688 -6.00281 -3.99536 -8.15861 -6.9917 -3.93881 -8.29608 -7.9619 -3.9164 -8.53734 -8.90001 -3.96951 -8.87957 -9.85532 -3.77827 -9.105 -10.8156 -3.62681 -9.33945 -11.7632 -3.49769 -9.63164 -12.7039 -3.48153 -9.97044 -13.352 -3.33378 -10.1237 3.71196 -5.05019 -7.87183 4.12 -5.77187 -7.31265 4.56804 -6.4921 -6.783 5.00324 -7.23667 -6.27682 5.41302 -7.97892 -5.7466 5.87522 -8.66384 -5.18334 6.3454 -9.34268 -4.61933 6.81714 -9.9727 -4.00245 7.29461 -10.605 -3.39233 7.79302 -11.2731 -2.83994 8.30631 -11.9042 -2.25835 8.87564 -12.5829 -1.79431 9.53975 -13.1208 -1.2751 10.2336 -13.6276 -0.763488 10.9666 -14.0916 -0.266011 11.7282 -14.6116 0.120708 11.7981 -14.6547 0.161423 4.81215 -5.90648 -9.27275 5.46256 -6.11421 -8.54213 6.18445 -6.36135 -7.89576 6.89805 -6.63152 -7.24939 7.66938 -6.87488 -6.66132 8.45653 -7.07751 -6.07881 9.20236 -7.24636 -5.43442 9.95061 -7.42242 -4.7948 10.6777 -7.60928 -4.13418 11.3805 -7.7276 -3.43273 12.0643 -7.95118 -2.73809 12.7708 -8.15881 -2.06153 13.5167 -8.47662 -1.47619 14.3271 -8.69824 -0.933838 15.1222 -8.79491 -0.335202 15.9427 -8.88848 0.228781 16.5849 -8.96528 0.718679 5.9106 -6.53745 -10.7492 5.73471 -5.66858 -11.212 5.5176 -4.75661 -11.56 5.37283 -3.83718 -11.9257 5.23477 -2.91316 -12.2822 4.96637 -2.02179 -12.6475 4.69537 -1.13024 -13.0104 4.48451 -0.215684 -13.3555 4.29946 0.69534 -13.724 4.0757 1.61489 -14.0471 3.88888 2.48637 -14.5005 3.85651 3.37551 -14.957 3.79671 4.27024 -15.3996 3.75613 4.83293 -15.6906 7.11938 -7.12981 -12.2309 7.85733 -6.62573 -11.7822 8.5503 -6.12367 -11.2648 9.2301 -5.69571 -10.6692 9.90362 -5.23757 -10.0891 10.6129 -4.73692 -9.59286 11.3241 -4.21896 -9.11759 12.0244 -3.7032 -8.62401 12.7518 -3.20487 -8.15227 13.5245 -2.69799 -7.77015 14.2616 -2.13696 -7.39349 15.0243 -1.59833 -7.03537 15.7192 -1.03032 -6.5944 16.5019 -0.574312 -6.17072 17.0366 -0.0820698 -5.96965 8.27369 -7.74379 -13.7198 8.44612 -8.61288 -13.2562 8.66237 -9.46922 -12.7872 8.78441 -10.3562 -12.3418 8.90131 -11.2327 -11.8748 9.00135 -12.0762 -11.347 9.20416 -12.927 -10.8623 9.41762 -13.7716 -10.3714 9.63346 -14.614 -9.87764 9.7944 -15.4759 -9.39668 9.95