<?xml version="1.0"?><VTKFile type="PolyData" version="0.1" byte_order="LittleEndian">
<PolyData>
<Piece NumberOfLines="9" NumberOfPoints="53">
<PointData Scalars=" PointData">
<DataArray type="Float32" Name="time" NumberOfComponents="1" format="ascii" >
0 0.0421442 0.450568 0.845472 1.19233 1.59502 2.08269 2.54041 2.9451 3.36251 3.82547 4.21454 4.65562 5.10198 5.58017 6 2.69344 2.74826 3.58167 4.38832 5.21924 6 3.12625 3.17296 4.02396 4.9795 5.74606 6 3.54494 3.60529 4.34175 5.37339 6 3.91288 3.97599 4.90886 5.90245 6 4.34026 4.38935 5.12509 5.8568 6 4.85813 4.90587 5.75571 6 5.34451 5.38818 6 5.77479 5.82214 6 
</DataArray>

</PointData>
<CellData Scalars=" CellData">
<DataArray type="Float32" Name="radius" NumberOfComponents="1" format="ascii" >
0.0548673 0.0277312 0.029948 0.0250211 0.027874 0.0341722 0.0240752 0.029017 0.0273713 
</DataArray>
<DataArray type="Float32" Name="subType" NumberOfComponents="1" format="ascii" >
1 2 2 2 2 2 2 2 2 
</DataArray>
<DataArray type="Float32" Name="creationTime" NumberOfComponents="1" format="ascii" >
0 2.69344 3.12625 3.54494 3.91288 4.34026 4.85813 5.34451 5.77479 
</DataArray>

</CellData>
<Points>
<DataArray type="Float32" Name="Coordinates" NumberOfComponents="3" format="ascii" >
0 0 -3 -0.000656198 0.00156591 -3.08398 0.0813919 -0.0101194 -3.88973 0.142003 -0.0563773 -4.66235 0.311529 -0.101419 -5.31565 0.484196 -0.180074 -6.07113 0.641871 -0.335482 -6.97872 0.768919 -0.460004 -7.82817 0.712022 -0.613268 -8.57052 0.700752 -0.650534 -9.34661 0.704671 -0.656059 -10.2002 0.602175 -0.745 -10.8979 0.465189 -0.805898 -11.6822 0.299964 -0.887502 -12.4611 0.405406 -1.05996 -13.2854 0.416655 -1.20866 -14.0082 -0.000656198 0.00156591 -3.08398 -0.0393872 0.0377232 -3.09692 -0.647515 0.567712 -3.25384 -1.23168 1.06986 -3.39056 -1.80708 1.59581 -3.5344 -2.3246 2.1141 -3.50878 0.0813919 -0.0101194 -3.88973 0.12683 -0.00566707 -3.87819 0.956643 0.0785611 -3.71482 1.87303 0.201692 -3.56434 2.58023 0.313648 -3.38422 2.81285 0.337605 -3.32182 0.142003 -0.0563773 -4.66235 0.0943047 -0.0687316 -4.64266 -0.409187 -0.431043 -4.47267 -0.979419 -1.02898 -4.14859 -1.37983 -1.33817 -3.98547 0.311529 -0.101419 -5.31565 0.340378 -0.142352 -5.30252 0.659223 -0.772504 -5.02431 1.06129 -1.40505 -4.75658 1.10122 -1.46527 -4.7287 0.484196 -0.180074 -6.07113 0.505722 -0.136315 -6.05408 0.852469 0.431555 -5.67046 1.16749 0.950766 -5.22667 1.22857 1.05138 -5.14053 0.641871 -0.335482 -6.97872 0.685114 -0.335329 -6.98139 1.44325 -0.330332 -7.08255 1.65775 -0.331785 -7.11942 0.768919 -0.460004 -7.82817 0.73564 -0.489704 -7.82161 0.272327 -0.902547 -7.73025 0.712022 -0.613268 -8.57052 0.755336 -0.597063 -8.57334 0.917679 -0.53642 -8.5848 
</DataArray>
</Points>
<Lines>
<DataArray type="Int32" Name="connectivity" NumberOfComponents="1" format="ascii" >
0 1 2 3 4 5 6 7 8 9 10 11 12 13 14 15 16 17 18 19 20 21 22 23 24 25 26 27 28 29 30 31 32 33 34 35 36 37 38 39 40 41 42 43 44 45 46 47 48 49 50 51 52 
</DataArray>
<DataArray type="Int32" Name="offsets" NumberOfComponents="1" format="ascii" >
16 22 28 33 38 43 47 50 53 
</DataArray>

</Lines>
</Piece>
</PolyData>
</VTKFile>
