<?xml version="1.0"?><VTKFile type="PolyData" version="0.1" byte_order="LittleEndian">
<PolyData>
<Piece NumberOfLines="51" NumberOfPoints="204">
<PointData Scalars=" PointData">
<DataArray type="Float32" Name="time" NumberOfComponents="1" format="ascii" >
0 0.486749 0.976143 1 0 0.48661 0.975581 1 0 0.486801 0.976351 1 0 0.486616 0.975604 1 0 0.486639 0.975698 1 0 0.486764 0.976201 1 0 0.486561 0.975384 1 0 0.486651 0.975746 1 0 0.48647 0.975018 1 0 0.486604 0.975558 1 0 0.486432 0.974865 1 0 0.486571 0.975426 1 0 0.486735 0.976086 1 0 0.486722 0.976031 1 0 0.486561 0.975384 1 0 0.486502 0.975146 1 0 0.486809 0.976382 1 0 0.486771 0.97623 1 0 0.48684 0.97651 1 0 0.486728 0.976058 1 0 0.486793 0.97632 1 0 0.486593 0.975513 1 0 0.486551 0.975342 1 0 0.486742 0.976114 1 0 0.486551 0.975342 1 0 0.486541 0.975302 1 0 0.486817 0.976413 1 0 0.486742 0.976114 1 0 0.486566 0.975405 1 0 0.486566 0.975405 1 0 0.486588 0.975491 1 0 0.486657 0.975771 1 0 0.486778 0.97626 1 0 0.48684 0.97651 1 0 0.486479 0.975054 1 0 0.486771 0.97623 1 0 0.486682 0.975871 1 0 0.486488 0.97509 1 0 0.486786 0.97629 1 0 0.486577 0.975448 1 0 0.486786 0.97629 1 0 0.486702 0.97595 1 0 0.486663 0.975795 1 0 0.486651 0.975746 1 0 0.486801 0.976351 1 0 0.486695 0.975923 1 0 0.486639 0.975698 1 0 0.486728 0.976058 1 0 0.486556 0.975363 1 0 0.486566 0.975405 1 0 0.486936 0.976894 1 
</DataArray>

</PointData>
<CellData Scalars=" CellData">
<DataArray type="Float32" Name="radius" NumberOfComponents="1" format="ascii" >
0.15 0.15 0.15 0.15 0.15 0.15 0.15 0.15 0.15 0.15 0.15 0.15 0.15 0.15 0.15 0.15 0.15 0.15 0.15 0.15 0.15 0.15 0.15 0.15 0.15 0.15 0.15 0.15 0.15 0.15 0.15 0.15 0.15 0.15 0.15 0.15 0.15 0.15 0.15 0.15 0.15 0.15 0.15 0.15 0.15 0.15 0.15 0.15 0.15 0.15 0.15 
</DataArray>
<DataArray type="Float32" Name="subType" NumberOfComponents="1" format="ascii" >
1 4 4 4 4 4 4 4 4 4 4 4 4 4 4 4 4 4 4 4 4 4 4 4 4 4 4 4 4 4 4 4 4 4 4 4 4 4 4 4 4 4 4 4 4 4 4 4 4 4 4 
</DataArray>
<DataArray type="Float32" Name="creationTime" NumberOfComponents="1" format="ascii" >
0 0 0 0 0 0 0 0 0 0 0 0 0 0 0 0 0 0 0 0 0 0 0 0 0 0 0 0 0 0 0 0 0 0 0 0 0 0 0 0 0 0 0 0 0 0 0 0 0 0 0 
</DataArray>

</CellData>
<Points>
<DataArray type="Float32" Name="Coordinates" NumberOfComponents="3" format="ascii" >
0 0 -3 -0.0564827 -0.00423184 -3.99839 -0.0516257 -0.0110185 -4.99836 -0.0456549 -0.0133125 -5.04655 0 0 -3 0.0221135 0.858038 -3.51311 0.183033 1.81866 -3.73964 0.191019 1.86635 -3.75159 0 0 -3 0.746359 0.432357 -3.50598 1.46055 0.942223 -3.98553 1.49312 0.966991 -4.01094 0 0 -3 0.603339 0.218807 -3.76688 1.12012 0.526288 -4.56587 1.14332 0.544672 -4.60588 0 0 -3 0.565384 0.654112 -3.50247 1.17649 1.2485 -4.02521 1.20531 1.27894 -4.05164 0 0 -3 -0.877608 0.156108 -3.45325 -1.75724 0.321846 -3.89909 -1.79973 0.33033 -3.92086 0 0 -3 -0.506034 0.752881 -3.42083 -1.11419 1.45488 -3.79144 -1.14101 1.49196 -3.81215 0 0 -3 0.656921 -0.751212 -3.06431 1.17507 -1.60526 -3.0182 1.2059 -1.64358 -3.013 0 0 -3 -0.544518 0.680194 -3.49075 -0.942679 1.33737 -4.13074 -0.969619 1.371 -4.15806 0 0 -3 0.690082 -0.472904 -3.54786 1.1839 -0.920079 -4.29363 1.20835 -0.942168 -4.33106 0 0 -3 0.672695 0.210714 -3.70928 1.29744 0.342468 -4.47892 1.33005 0.349432 -4.51797 0 0 -3 -0.0041962 -0.802209 -3.59703 0.386148 -1.39691 -4.29985 0.411586 -1.42512 -4.33259 0 0 -3 0.57643 0.573993 -3.5816 1.18821 1.15919 -4.11383 1.21816 1.18777 -4.13954 0 0 -3 -0.747462 -0.274794 -3.60481 -1.55579 -0.453651 -4.1657 -1.59645 -0.457609 -4.1925 0 0 -3 0.0423252 -0.861157 -3.50657 0.204126 -1.65043 -4.09891 0.213001 -1.68959 -4.12911 0 0 -3 -0.32864 -0.77348 -3.54196 -0.562103 -1.42147 -4.26695 -0.572632 -1.45356 -4.30482 0 0 -3 -0.842021 -0.0600902 -3.53609 -1.62451 -0.373129 -4.07434 -1.66279 -0.390433 -4.09777 0 0 -3 -0.440582 -0.713919 -3.54425 -0.905858 -1.41167 -4.08891 -0.928291 -1.44521 -4.11569 0 0 -3 -0.799611 0.377643 -3.46691 -1.60008 0.729678 -3.95201 -1.63906 0.74705 -3.9736 0 0 -3 0.481169 0.736014 -3.47619 0.946348 1.48445 -3.9489 0.968696 1.52114 -3.97203 0 0 -3 0.894943 0.174219 -3.41076 1.50338 0.857873 -3.81378 1.53343 0.890079 -3.83342 0 0 -3 0.0935687 -0.728528 -3.6786 0.138182 -1.49199 -4.3229 0.140363 -1.5302 -4.35502 0 0 -3 -0.0972972 0.887235 -3.45094 -0.153456 1.73863 -3.97246 -0.158055 1.78222 -3.99717 0 0 -3 -0.807084 0.325469 -3.49263 -1.65045 0.607172 -3.95021 -1.69076 0.621373 -3.9735 0 0 -3 -0.76231 -0.445842 -3.46916 -1.65034 -0.889853 -3.58856 -1.69612 -0.910299 -3.59292 0 0 -3 -0.413714 -0.671431 -3.61483 -0.872885 -1.45329 -4.03657 -0.893429 -1.49344 -4.05909 0 0 -3 0.438269 0.487259 -3.75531 0.872568 1.10547 -4.41045 0.892121 1.1385 -4.43932 0 0 -3 -0.310218 0.812966 -3.4928 -0.529739 1.48559 -4.19947 -0.541162 1.51882 -4.23315 0 0 -3 0.694715 -0.160952 -3.70105 1.58021 -0.318252 -4.13826 1.62371 -0.327598 -4.16148 0 0 -3 0.775237 -0.118201 -3.62051 1.51989 -0.264247 -4.27179 1.55787 -0.269789 -4.30413 0 0 -3 0.673815 0.499523 -3.54447 1.08026 1.17407 -4.16074 1.10214 1.20646 -4.19193 0 0 -3 0.899015 -0.0255736 -3.43717 1.85377 0.0676167 -3.71959 1.90116 0.0702421 -3.7333 0 0 -3 0.46153 0.0748968 -3.88396 0.971092 0.0671109 -4.74436 0.991993 0.0647 -4.7879 0 0 -3 0.853265 0.349048 -3.38743 1.71765 0.638592 -3.79854 1.75806 0.655257 -3.81794 0 0 -3 0.753464 -0.341002 -3.56215 1.45862 -0.698481 -4.17449 1.49201 -0.716884 -4.20828 0 0 -3 0.761986 0.26176 -3.59233 1.48464 0.47609 -4.24947 1.52171 0.488591 -4.27801 0 0 -3 -0.801622 -0.113989 -3.58686 -1.46566 -0.481808 -4.23783 -1.49761 -0.501346 -4.26972 0 0 -3 0.744032 0.384172 -3.54665 1.5262 0.870318 -3.93636 1.56393 0.8979 -3.95643 0 0 -3 0.169999 0.66045 -3.73137 0.376397 1.31631 -4.45749 0.387284 1.34554 -4.49436 0 0 -3 -0.461224 -0.745722 -3.4808 -1.08413 -1.41788 -3.88105 -1.11644 -1.45146 -3.89942 0 0 -3 0.975447 0.0827629 -3.20409 1.96398 0.171819 -3.32604 2.01201 0.172958 -3.33095 0 0 -3 0.453378 -0.874897 -3.17031 0.711006 -1.84108 -3.18111 0.723611 -1.88845 -3.18158 0 0 -3 0.359201 -0.516561 -3.77726 0.764827 -1.00469 -4.55005 0.783324 -1.03291 -4.58607 0 0 -3 0.090574 0.87131 -3.4823 0.495761 1.73131 -3.7925 0.515816 1.77384 -3.80783 0 0 -3 0.540037 0.666027 -3.51456 1.19747 1.14063 -4.09982 1.22913 1.16354 -4.12798 0 0 -3 -0.447684 -0.807887 -3.38327 -0.836156 -1.63622 -3.78695 -0.854893 -1.67702 -3.80678 0 0 -3 -0.0858092 0.862893 -3.49805 -0.172316 1.68257 -4.0643 -0.178138 1.72332 -4.0919 0 0 -3 -0.653522 -0.648 -3.39116 -1.3762 -1.12575 -3.89065 -1.41166 -1.14786 -3.91584 0 0 -3 -0.168572 0.772086 -3.61275 -0.474523 1.51905 -4.20304 -0.48982 1.55658 -4.23279 0 0 -3 -0.115934 -0.887837 -3.44531 -0.320107 -1.86028 -3.55787 -0.328484 -1.90908 -3.56605 0 0 -3 0.841572 -0.186169 -3.50705 1.74831 -0.524077 -3.75934 1.78974 -0.537049 -3.77736 
</DataArray>
</Points>
<Lines>
<DataArray type="Int32" Name="connectivity" NumberOfComponents="1" format="ascii" >
0 1 2 3 4 5 6 7 8 9 10 11 12 13 14 15 16 17 18 19 20 21 22 23 24 25 26 27 28 29 30 31 32 33 34 35 36 37 38 39 40 41 42 43 44 45 46 47 48 49 50 51 52 53 54 55 56 57 58 59 60 61 62 63 64 65 66 67 68 69 70 71 72 73 74 75 76 77 78 79 80 81 82 83 84 85 86 87 88 89 90 91 92 93 94 95 96 97 98 99 100 101 102 103 104 105 106 107 108 109 110 111 112 113 114 115 116 117 118 119 120 121 122 123 124 125 126 127 128 129 130 131 132 133 134 135 136 137 138 139 140 141 142 143 144 145 146 147 148 149 150 151 152 153 154 155 156 157 158 159 160 161 162 163 164 165 166 167 168 169 170 171 172 173 174 175 176 177 178 179 180 181 182 183 184 185 186 187 188 189 190 191 192 193 194 195 196 197 198 199 200 201 202 203 
</DataArray>
<DataArray type="Int32" Name="offsets" NumberOfComponents="1" format="ascii" >
4 8 12 16 20 24 28 32 36 40 44 48 52 56 60 64 68 72 76 80 84 88 92 96 100 104 108 112 116 120 124 128 132 136 140 144 148 152 156 160 164 168 172 176 180 184 188 192 196 200 204 
</DataArray>

</Lines>
</Piece>
</PolyData>
</VTKFile>
