<?xml version="1.0"?><VTKFile type="PolyData" version="0.1" byte_order="LittleEndian">
<PolyData>
<Piece NumberOfLines="10" NumberOfPoints="196">
<PointData Scalars=" PointData">
<DataArray type="Float32" Name="time" NumberOfComponents="1" format="ascii" >
0 0.0484203 0.0969052 0.145455 0.194069 0.242748 0.291493 0.340303 0.389179 0.43812 0.487126 0.5362 0.585336 0.634542 0.683815 0.683816 0.733156 0.782562 0.782563 0.832037 0.881577 0.931185 0.98086 1 0 0.0580641 0.116219 0.174465 0.232803 0.291233 0.349755 0.408369 0.467076 0.525876 0.584769 0.643756 0.702837 0.734096 0.793321 0.85264 0.912055 0.971564 0.986338 1 0 0.0573613 0.114813 0.172356 0.229989 0.287714 0.345531 0.403439 0.46144 0.519533 0.577719 0.635998 0.69437 0.713654 0.772151 0.830742 0.889428 0.948208 0.965096 1 0 0.0618285 0.123756 0.185784 0.247912 0.310141 0.37247 0.434901 0.497433 0.560066 0.622802 0.685641 0.703428 0.766398 0.829472 0.892649 0.95593 0.971272 1 0 0.0589113 0.117915 0.177012 0.236202 0.295485 0.354862 0.414333 0.473898 0.533558 0.593312 0.653162 0.713108 0.759043 0.819158 0.879369 0.939677 1 0 0.0631666 0.126433 0.189798 0.253264 0.31683 0.380497 0.444265 0.508134 0.572105 0.636178 0.700353 0.752132 0.816493 0.880957 0.945524 1 0 0.0633678 0.126835 0.190403 0.254071 0.31784 0.38171 0.445681 0.509754 0.573929 0.638207 0.702587 0.767009 0.831595 0.896285 0.961079 1 0 0.0501659 0.100412 0.15074 0.201148 0.251639 0.30221 0.352864 0.4036 0.454418 0.50532 0.556304 0.607372 0.618245 0.669414 0.720667 0.772004 0.818019 0.869516 0.921098 0.972766 1 0 0.061547 0.123189 0.184927 0.246761 0.308691 0.370718 0.432842 0.495062 0.55738 0.619796 0.68231 0.744923 0.751109 0.81383 0.87665 0.939569 1 0 0.0558077 0.111704 0.16769 0.223766 0.279931 0.336186 0.392532 0.448968 0.505495 0.562114 0.618824 0.675625 0.684722 0.741631 0.798632 0.855726 0.912913 0.929789 0.987097 1 
</DataArray>

</PointData>
<CellData Scalars=" CellData">
<DataArray type="Float32" Name="radius" NumberOfComponents="1" format="ascii" >
0.211197 0.210067 0.175276 0.18676 0.184686 0.184917 0.224166 0.20198 0.192038 0.182683 
</DataArray>
<DataArray type="Float32" Name="subType" NumberOfComponents="1" format="ascii" >
1 4 4 4 4 4 4 4 4 4 
</DataArray>
<DataArray type="Float32" Name="creationTime" NumberOfComponents="1" format="ascii" >
0 0 0 0 0 0 0 0 0 0 
</DataArray>

</CellData>
<Points>
<DataArray type="Float32" Name="Coordinates" NumberOfComponents="3" format="ascii" >
0 0 -3 -0.189769 -0.0112375 -3.16236 -0.360447 -0.0391836 -3.34288 -0.529852 -0.0664216 -3.52471 -0.672992 -0.111883 -3.72457 -0.817277 -0.159255 -3.92316 -0.981151 -0.21066 -4.10482 -1.15426 -0.266555 -4.27631 -1.3245 -0.323787 -4.45022 -1.4957 -0.376488 -4.62461 -1.63433 -0.45014 -4.81918 -1.78649 -0.55237 -4.98917 -1.91873 -0.685113 -5.15465 -2.02929 -0.817655 -5.3355 -2.13902 -0.950777 -5.51644 -2.13902 -0.95078 -5.51645 -2.20277 -1.0651 -5.72944 -2.26147 -1.18642 -5.94 -2.26147 -1.18642 -5.94001 -2.32122 -1.30838 -6.1499 -2.35259 -1.3725 -6.38949 -2.37163 -1.4481 -6.62702 -2.42177 -1.51682 -6.8621 -2.44541 -1.53216 -6.95411 0 0 -3 -0.240844 -0.0668634 -2.99518 -0.483084 -0.128541 -2.99118 -0.725673 -0.188719 -2.9858 -0.967886 -0.250337 -2.99181 -1.20955 -0.314356 -2.99312 -1.4518 -0.376046 -2.99609 -1.69193 -0.444645 -3.00761 -1.93187 -0.513797 -3.0196 -2.16948 -0.589865 -3.03565 -2.40665 -0.665826 -3.05751 -2.64152 -0.748603 -3.07952 -2.87725 -0.827307 -3.10668 -3.00232 -0.867768 -3.11988 -3.23913 -0.943796 -3.14521 -3.47539 -1.02138 -3.1709 -3.71047 -1.10143 -3.19975 -3.94601 -1.18098 -3.22606 -4.00449 -1.20044 -3.2328 -4.05853 -1.21848 -3.239 0 0 -3 -0.166866 -0.177177 -3.05713 -0.332234 -0.355464 -3.11516 -0.497303 -0.533348 -3.17524 -0.656481 -0.716159 -3.23641 -0.818013 -0.895442 -3.30172 -0.975251 -1.07527 -3.37546 -1.13191 -1.25662 -3.44666 -1.28749 -1.4392 -3.51709 -1.43829 -1.62477 -3.59006 -1.5859 -1.81259 -3.6638 -1.73255 -2.00129 -3.73717 -1.87206 -2.19531 -3.81061 -1.91816 -2.25932 -3.83477 -2.0595 -2.44858 -3.91663 -2.20106 -2.63485 -4.00475 -2.34649 -2.81734 -4.09446 -2.4962 -2.9955 -4.18582 -2.53926 -3.04653 -4.21209 -2.62849 -3.15161 -4.26647 0 0 -3 0.0923656 -0.23063 -3.0279 0.188802 -0.458372 -3.06442 0.281968 -0.68626 -3.10786 0.369292 -0.914411 -3.16098 0.45692 -1.14225 -3.21494 0.54481 -1.36999 -3.26886 0.629532 -1.59751 -3.3285 0.709313 -1.82574 -3.39213 0.792442 -2.05199 -3.45846 0.87164 -2.27971 -3.52457 0.951961 -2.50722 -3.59005 0.974823 -2.5715 -3.60858 1.06051 -2.79758 -3.67218 1.14632 -3.02373 -3.73537 1.23166 -3.25004 -3.7986 1.32413 -3.47372 -3.8612 1.34692 -3.5277 -3.87644 1.39021 -3.62818 -3.90595 0 0 -3 -0.238501 -0.0636488 -3.03957 -0.472983 -0.136124 -3.08717 -0.706775 -0.209139 -3.13727 -0.939579 -0.2837 -3.18965 -1.16984 -0.3669 -3.24023 -1.402 -0.44253 -3.29392 -1.6344 -0.516128 -3.34934 -1.86685 -0.589446 -3.40496 -2.09881 -0.665621 -3.45874 -2.33124 -0.738475 -3.51499 -2.56424 -0.810168 -3.57043 -2.79734 -0.881548 -3.62582 -2.97682 -0.937143 -3.66175 -3.20784 -1.01305 -3.71981 -3.43835 -1.09105 -3.77709 -3.66874 -1.16907 -3.83483 -3.89724 -1.25463 -3.8877 0 0 -3 0.163571 -0.182392 -2.95022 0.327585 -0.364057 -2.89926 0.489051 -0.547257 -2.84572 0.649101 -0.731059 -2.79004 0.807962 -0.915702 -2.73373 0.96521 -1.10161 -2.67705 1.11894 -1.29058 -2.62089 1.26098 -1.48846 -2.56458 1.40236 -1.68764 -2.5113 1.54503 -1.88634 -2.45969 1.68719 -2.08571 -2.4093 1.79826 -2.24847 -2.36756 1.93573 -2.45051 -2.3148 2.07304 -2.6509 -2.25572 2.20858 -2.85249 -2.19663 2.33042 -3.01951 -2.15643 0 0 -3 0.0969335 0.223357 -3.05671 0.192919 0.44217 -3.13024 0.288992 0.663336 -3.19624 0.383566 0.883495 -3.26755 0.479153 1.10365 -3.33751 0.578623 1.32216 -3.40721 0.680454 1.53996 -3.47575 0.788983 1.75287 -3.54916 0.89444 1.96676 -3.62419 1.00011 2.18051 -3.69932 1.1052 2.39361 -3.77707 1.208 2.60685 -3.85671 1.30915 2.82241 -3.93288 1.40663 3.04047 -4.00669 1.50826 3.26022 -4.06898 1.56965 3.39171 -4.10691 0 0 -3 0.00420843 0.241829 -3.06325 0.0101518 0.484299 -3.12386 0.0162248 0.724907 -3.19147 0.0246834 0.964072 -3.26378 0.034142 1.20296 -3.33688 0.0444958 1.44208 -3.40909 0.054378 1.68053 -3.48353 0.059698 1.91455 -3.57133 0.06763 2.14928 -3.65699 0.0620236 2.38084 -3.75106 0.0649595 2.60565 -3.86038 0.0752298 2.83215 -3.9657 0.0775737 2.88012 -3.98854 0.0923274 3.10483 -4.0971 0.110055 3.32882 -4.20671 0.124386 3.55434 -4.31366 0.130579 3.75681 -4.40865 0.13655 3.98257 -4.51586 0.142432 4.20836 -4.62304 0.152121 4.4344 -4.7294 0.159688 4.55222 -4.78755 0 0 -3 0.0454208 -0.231169 -3.08365 0.0904133 -0.462621 -3.16675 0.130228 -0.694652 -3.25087 0.177029 -0.923145 -3.34088 0.221145 -1.15486 -3.42372 0.261108 -1.38535 -3.51189 0.301082 -1.61585 -3.60006 0.333985 -1.84296 -3.69925 0.368006 -2.07049 -3.79709 0.400543 -2.29788 -3.89576 0.436482 -2.52506 -3.99372 0.474193 -2.75237 -4.09072 0.477882 -2.7748 -4.10032 0.524192 -3.00324 -4.19072 0.575341 -3.23269 -4.27578 0.623591 -3.46088 -4.36581 0.668747 -3.68309 -4.44363 0 0 -3 -0.155327 -0.195291 -2.98466 -0.311811 -0.389824 -2.97165 -0.469886 -0.583384 -2.96483 -0.627995 -0.776945 -2.95883 -0.784256 -0.971875 -2.94961 -0.936534 -1.16991 -2.93994 -1.0881 -1.36852 -2.93094 -1.24411 -1.56364 -2.92152 -1.39968 -1.75912 -2.91217 -1.55546 -1.95444 -2.90317 -1.70932 -2.15118 -2.89229 -1.86425 -2.34691 -2.87852 -1.88904 -2.37822 -2.87628 -2.04691 -2.5718 -2.86607 -2.19745 -2.77062 -2.84848 -2.35273 -2.96596 -2.83335 -2.50264 -3.16528 -2.81605 -2.54806 -3.22313 -2.81138 -2.70215 -3.41943 -2.79647 -2.73676 -3.46369 -2.79432 
</DataArray>
</Points>
<Lines>
<DataArray type="Int32" Name="connectivity" NumberOfComponents="1" format="ascii" >
0 1 2 3 4 5 6 7 8 9 10 11 12 13 14 15 16 17 18 19 20 21 22 23 24 25 26 27 28 29 30 31 32 33 34 35 36 37 38 39 40 41 42 43 44 45 46 47 48 49 50 51 52 53 54 55 56 57 58 59 60 61 62 63 64 65 66 67 68 69 70 71 72 73 74 75 76 77 78 79 80 81 82 83 84 85 86 87 88 89 90 91 92 93 94 95 96 97 98 99 100 101 102 103 104 105 106 107 108 109 110 111 112 113 114 115 116 117 118 119 120 121 122 123 124 125 126 127 128 129 130 131 132 133 134 135 136 137 138 139 140 141 142 143 144 145 146 147 148 149 150 151 152 153 154 155 156 157 158 159 160 161 162 163 164 165 166 167 168 169 170 171 172 173 174 175 176 177 178 179 180 181 182 183 184 185 186 187 188 189 190 191 192 193 194 195 
</DataArray>
<DataArray type="Int32" Name="offsets" NumberOfComponents="1" format="ascii" >
24 44 64 83 101 118 135 157 175 196 
</DataArray>

</Lines>
</Piece>
</PolyData>
</VTKFile>
