<?xml version="1.0"?><VTKFile type="PolyData" version="0.1" byte_order="LittleEndian">
<PolyData>
<Piece NumberOfLines="115" NumberOfPoints="782">
<PointData Scalars=" PointData">
<DataArray type="Float32" Name="time" NumberOfComponents="1" format="ascii" >
0 0.15635 0.292313 0.422893 0.575036 0.726875 0.878216 1.02413 1.16999 1.31826 1.47571 1.60877 1.77074 1.92094 2.06512 2.20584 2.36039 2.52614 2.68203 2.84372 2.99056 3.16166 3.29225 3.46319 3.58296 3.75018 3.90101 4.07835 4.2469 4.39927 4.55616 4.73263 4.89158 5.03711 5.2158 5.38792 5.57241 5.73129 5.89583 6.07752 6.27071 6.45392 6.61847 6.78476 6.94476 7.12356 7.29565 7.45403 7.62998 7.80956 7.95763 8.11851 8.30539 8.47106 8.65317 8.83507 9.02892 9.18603 9.38104 9.52077 9.69535 9.90436 10.0851 10.25 10.4151 10.5846 10.7952 10.9736 11.1388 11.3085 11.5018 11.7254 11.9314 12.1207 12.336 12.4928 12.667 12.8485 13.0339 13.2183 13.4028 13.6071 13.806 14.0033 14.1971 14.4018 14.6067 14.7756 14.9711 15.1927 15.4091 15.6017 15.8184 16.0159 16.2174 16.412 16.6229 16.8331 17.0356 17.2467 17.4599 17.6934 17.8644 18.1069 18.345 18.5855 18.8266 19.0274 19.2791 19.4856 19.7232 19.9309 20.1513 20.3606 20.5686 20.7674 20.9669 21 5.95558 7.17458 8.56107 10.1685 12.0809 14.4417 17.5277 21 6.10704 7.38812 8.84522 10.5345 12.5443 15 18.2342 21 6.25254 7.55249 9.03103 10.7452 12.7846 15.3021 18.593 21 6.42212 7.94311 9.67307 11.6787 14.0648 17.0105 20.861 21 6.59142 7.95254 9.50066 11.2955 13.4308 16.0668 19.5126 21 6.76021 8.28337 10 12.0058 14.3915 17.3354 21 6.92301 8.17293 9.59458 11.2428 13.2037 15.6243 18.7886 21 7.0858 8.40458 9.90455 11.6435 13.7125 16.2665 19.6051 21 7.25133 8.66616 10.2754 12.141 14.3606 17.1007 20.6824 21 7.42716 8.72516 10.2015 11.9131 13.9494 16.4632 19.7492 21 7.57581 9.08713 10.8061 12.799 15.17 18.0969 21 7.75681 9.27726 11.0066 13.0115 15.3968 18.3414 21 7.92471 9.33788 10.9452 12.8087 15.0256 17.7625 21 8.08593 9.42934 10.9573 12.7288 14.8364 17.4381 20.8391 21 8.24333 9.65388 11.2582 13.1182 15.3311 18.0628 21 8.41627 9.90831 11.6053 13.5728 15.9135 18.8031 21 8.6018 9.95149 11.4866 13.2664 15.3838 17.9977 21 8.77636 10.3353 12.1083 14.164 16.6096 19.6286 21 8.95747 10.7567 12.8031 15.1756 17.9983 21 9.12201 10.5111 12.0911 13.9229 16.1021 18.7924 21 9.31379 10.6965 12.2692 14.0926 16.2618 18.9397 21 9.46023 10.9001 12.5377 14.4363 16.6952 19.4836 21 9.65197 10.8876 12.2929 13.9222 15.8607 18.2536 21 9.78636 11.0875 12.5674 14.2832 16.3244 18.8443 21 9.97404 11.4333 13.093 15 17.2857 20.1062 21 10.1434 11.4187 12.8692 14.5508 16.5515 19.0213 21 10.3426 11.6386 13.1126 14.8215 16.8547 19.3645 21 10.532 11.9515 13.566 15.4378 17.6647 20.4138 21 10.7033 12.0923 13.6722 15.5038 17.683 20.3731 21 10.8797 12.4234 14.1791 16.2147 18.6364 21 11.0782 12.4256 13.9581 15.7349 17.8487 20.4581 21 11.2571 12.671 14.2792 16.1436 18.3618 21 11.4209 12.7095 14.1752 15.8744 17.8959 20.3915 21 11.6222 13.2511 15.1039 17.2519 19.8074 21 11.8161 13.2219 14.8209 16.6747 18.8802 21 12.0241 13.268 14.6828 16.3231 18.2745 20.6835 21 12.2032 13.7731 15.5586 17.6287 20.0915 21 12.3888 13.9295 15.6819 17.7135 20.1306 21 12.5938 14.0066 15.6135 17.4765 19.6928 21 12.812 14.181 15.7382 17.5436 19.6914 21 13.0189 14.7946 16.8143 19.1558 21 13.2048 14.9014 16.831 19.0681 21 13.3928 14.811 16.4241 18.2942 20.5192 21 13.5738 15.0711 16.7741 18.7485 21 13.7761 15.3916 17.2291 19.3594 21 13.9708 15.505 17.25 19.2731 21 14.1502 15.486 17.0053 18.7667 20.8623 21 14.3495 15.8022 17.4546 19.3702 21 14.553 16.0122 17.6719 19.5961 21 14.7209 16.4214 18.3557 20.5981 21 14.9033 16.4354 18.1779 20.198 21 15.1154 16.3442 17.7419 19.3623 21 15.3034 16.718 18.3269 20.1922 21 15.5103 16.9942 18.6819 20.6386 21 15.7169 17.2085 18.905 20.8718 21 15.9373 17.4088 19.0825 21 16.116 17.6618 19.4201 21 16.3378 17.8404 19.5495 21 16.4969 18.0179 19.7479 21 16.6957 18.135 19.7721 21 16.9338 18.3445 19.9491 21 17.1398 18.6335 20.3324 21 17.3279 18.9147 20.7195 21 17.5162 18.8958 20.465 21 17.7096 18.9806 20.4262 21 17.9501 19.5418 21 18.1539 19.5448 21 18.3428 19.6908 21 18.5368 20.0963 21 18.758 20.2947 21 19.0139 20.4427 21 19.2499 20.6372 21 19.4668 20.9228 21 19.7136 21 19.8936 21 20.0935 21 20.302 21 20.515 21 20.7269 21 20.9391 21 7 7.20699 7.41221 7.56669 7.79832 8.08459 8.28657 8.49779 8.72424 8.97535 9.17825 9.36744 9.56731 9.77959 9.94276 10.1329 10.3211 10.5091 10.7652 10.9745 11.181 11.3768 11.6037 11.8562 12.0761 12.3058 12.558 12.7662 12.9518 13.1353 13.3204 13.5182 13.7493 13.964 14.175 14.4292 14.6374 14.8464 15.0765 15.2754 15.5086 15.763 16.027 16.2683 16.5248 16.7905 17.023 17.2504 17.5254 17.7541 17.9646 18.1829 18.427 18.6584 18.8947 19.1606 19.3514 19.5612 19.8114 20.0558 20.3175 20.557 20.8244 21 13.6025 14.8157 16.1957 17.7955 19.6989 21 13.8269 15.1785 16.7158 18.498 20.6184 21 13.9959 15.4832 17.1748 19.136 21 14.2494 15.7527 17.4626 19.445 21 14.5627 15.9474 17.5225 19.3485 21 14.7838 16.1681 17.7425 19.5679 21 15.0152 16.4162 18.0097 19.8571 21 15.2632 16.8531 18.6613 20.7577 21 15.5384 16.9523 18.5604 20.4247 21 15.7608 17.35 19.1575 21 15.9683 17.3589 18.9405 20.7742 21 16.1875 17.4861 18.9631 20.6755 21 16.4204 17.9137 19.6123 21 16.5994 17.9729 19.5351 21 16.8082 18.2821 19.9585 21 17.0148 18.3926 19.9596 21 17.2212 18.5414 20.0429 21 17.5026 18.8486 20.3796 21 17.7325 19.0586 20.5669 21 17.9596 19.3555 20.9431 21 18.1749 19.5059 21 18.4244 19.7148 21 18.7022 20.0999 21 18.9442 20.4555 21 19.1971 20.57 21 19.4748 21 19.7042 20.9381 21 19.9087 21 20.111 21 20.315 21 20.5332 21 20.7881 21 14 14.1491 14.3168 14.4535 14.6403 14.7971 14.9535 15.1232 15.3094 15.4651 15.6407 15.8241 16.0309 16.2158 16.3947 16.58 16.7722 16.955 17.1219 17.3133 17.4806 17.6496 17.8236 17.9656 18.146 18.3126 18.5028 18.6767 18.8588 19.0747 19.2529 19.4457 19.6196 19.7773 19.9415 20.1009 20.2913 20.4408 20.636 20.8012 21 
</DataArray>

</PointData>
<CellData Scalars=" CellData">
<DataArray type="Float32" Name="radius" NumberOfComponents="1" format="ascii" >
0.138047 0.0465364 0.0469442 0.0467592 0.0415628 0.0553089 0.0454944 0.0455445 0.053007 0.0499801 0.0499485 0.0541913 0.0486872 0.0519842 0.0516231 0.0458002 0.0412245 0.0479646 0.0457859 0.0503062 0.0472453 0.0444833 0.0510881 0.041263 0.0525339 0.0532511 0.0454796 0.0440234 0.0404045 0.0571158 0.0509314 0.0507833 0.0413134 0.0493016 0.0465612 0.053168 0.039638 0.0489909 0.0501995 0.0553863 0.0506481 0.0480945 0.0501051 0.0573306 0.0536833 0.051641 0.0369402 0.0426987 0.0533212 0.0543374 0.0514611 0.0559224 0.0553698 0.0459871 0.0478404 0.0533748 0.0542256 0.0519592 0.0483501 0.0531678 0.0478315 0.0473665 0.052362 0.0536522 0.0436961 0.0464208 0.0489898 0.0482399 0.0438187 0.0481702 0.0523377 0.0525625 0.0436389 0.0507927 0.0451432 0.04649 0.050851 0.0490723 0.0472333 0.0461238 0.0520145 0.126587 0.0530299 0.0546855 0.0453875 0.0522789 0.0415644 0.0484555 0.0530076 0.0443205 0.0516533 0.0525598 0.0433772 0.05181 0.047311 0.055413 0.0443985 0.0484894 0.0477429 0.0488665 0.0556969 0.0511249 0.0514228 0.0468187 0.0492232 0.0527193 0.0448879 0.0516941 0.059129 0.0476559 0.0444531 0.0474283 0.0520578 0.0490892 0.128995 
</DataArray>
<DataArray type="Float32" Name="subType" NumberOfComponents="1" format="ascii" >
1 2 2 2 2 2 2 2 2 2 2 2 2 2 2 2 2 2 2 2 2 2 2 2 2 2 2 2 2 2 2 2 2 2 2 2 2 2 2 2 2 2 2 2 2 2 2 2 2 2 2 2 2 2 2 2 2 2 2 2 2 2 2 2 2 2 2 2 2 2 2 2 2 2 2 2 2 2 2 2 2 4 2 2 2 2 2 2 2 2 2 2 2 2 2 2 2 2 2 2 2 2 2 2 2 2 2 2 2 2 2 2 2 2 4 
</DataArray>
<DataArray type="Float32" Name="creationTime" NumberOfComponents="1" format="ascii" >
0 5.95558 6.10704 6.25254 6.42212 6.59142 6.76021 6.92301 7.0858 7.25133 7.42716 7.57581 7.75681 7.92471 8.08593 8.24333 8.41627 8.6018 8.77636 8.95747 9.12201 9.31379 9.46023 9.65197 9.78636 9.97404 10.1434 10.3426 10.532 10.7033 10.8797 11.0782 11.2571 11.4209 11.6222 11.8161 12.0241 12.2032 12.3888 12.5938 12.812 13.0189 13.2048 13.3928 13.5738 13.7761 13.9708 14.1502 14.3495 14.553 14.7209 14.9033 15.1154 15.3034 15.5103 15.7169 15.9373 16.116 16.3378 16.4969 16.6957 16.9338 17.1398 17.3279 17.5162 17.7096 17.9501 18.1539 18.3428 18.5368 18.758 19.0139 19.2499 19.4668 19.7136 19.8936 20.0935 20.302 20.515 20.7269 20.9391 7 13.6025 13.8269 13.9959 14.2494 14.5627 14.7838 15.0152 15.2632 15.5384 15.7608 15.9683 16.1875 16.4204 16.5994 16.8082 17.0148 17.2212 17.5026 17.7325 17.9596 18.1749 18.4244 18.7022 18.9442 19.1971 19.4748 19.7042 19.9087 20.111 20.315 20.5332 20.7881 14 
</DataArray>

</CellData>
<Points>
<DataArray type="Float32" Name="Coordinates" NumberOfComponents="3" format="ascii" >
0 0 -3 0.480419 -0.193686 -3.06488 0.905999 -0.304189 -3.17278 1.31267 -0.387288 -3.29864 1.78074 -0.527977 -3.42182 2.24281 -0.668765 -3.55705 2.69103 -0.81419 -3.71985 3.12104 -0.941759 -3.88894 3.54919 -1.06942 -4.05855 3.97773 -1.21214 -4.23372 4.44142 -1.35303 -4.40193 4.83346 -1.46799 -4.54342 5.31608 -1.55265 -4.73151 5.75973 -1.63492 -4.91015 6.18279 -1.72197 -5.08119 6.57849 -1.82685 -5.27335 6.97054 -1.97542 -5.5371 7.38956 -2.08802 -5.84081 7.79747 -2.2077 -6.09764 8.22899 -2.32374 -6.35079 8.5885 -2.48018 -6.60096 9.02462 -2.64031 -6.87685 9.35247 -2.75439 -7.0974 9.78092 -2.90425 -7.38394 10.0811 -3.00828 -7.58344 10.4873 -3.13128 -7.88786 10.8765 -3.24155 -8.12664 11.3371 -3.32826 -8.41551 11.763 -3.31502 -8.71651 12.1415 -3.3116 -8.99533 12.5223 -3.30699 -9.29197 12.9375 -3.29092 -9.6388 13.2905 -3.32463 -9.97119 13.6135 -3.35704 -10.2737 14.0079 -3.40112 -10.6447 14.3727 -3.43256 -11.016 14.7561 -3.36649 -11.4149 15.049 -3.28638 -11.7843 15.3361 -3.20034 -12.1768 15.6273 -3.06726 -12.6161 15.9614 -3.03262 -13.0839 16.2701 -2.99809 -13.5309 16.5283 -3.02287 -13.9434 16.7816 -3.0671 -14.3616 17.0269 -3.13569 -14.7577 17.2992 -3.19228 -15.2025 17.5601 -3.24717 -15.6294 17.7726 -3.29749 -16.0362 17.9628 -3.38751 -16.5023 18.1008 -3.45422 -16.9994 18.1833 -3.47526 -17.4185 18.2724 -3.47227 -17.8731 18.3978 -3.45885 -18.3945 18.5196 -3.44668 -18.8525 18.6538 -3.43374 -19.354 18.7622 -3.42642 -19.8595 18.9001 -3.45401 -20.3902 18.9889 -3.48421 -20.8237 19.1335 -3.53956 -21.3501 19.2167 -3.59642 -21.7289 19.3262 -3.65966 -22.2005 19.4578 -3.73306 -22.7632 19.5497 -3.82066 -23.2488 19.6414 -3.87205 -23.6931 19.7342 -3.90818 -24.1377 19.8298 -3.94443 -24.5924 19.9858 -3.92089 -25.1478 20.1264 -3.95563 -25.6131 20.2401 -3.9925 -26.0467 20.3515 -4.02653 -26.4924 20.4561 -4.05947 -27.0035 20.577 -4.09727 -27.5926 20.6806 -4.16433 -28.1316 20.7607 -4.20956 -28.6294 20.7823 -4.2592 -29.2002 20.7921 -4.31762 -29.6124 20.8054 -4.39002 -30.0675 20.8624 -4.4501 -30.5392 20.9138 -4.50705 -31.0205 21.0058 -4.6076 -31.4839 21.0951 -4.70956 -31.9461 21.2025 -4.83404 -32.4516 21.3119 -4.90094 -32.9508 21.3927 -4.94209 -33.4521 21.4798 -4.98704 -33.9411 21.5566 -5.03884 -34.4576 21.6404 -5.03521 -34.9741 21.7199 -5.02941 -35.3965 21.7983 -5.03702 -35.886 21.8349 -4.98486 -36.4423 21.8648 -5.04618 -36.9825 21.8942 -5.08882 -37.4623 21.9284 -5.16898 -37.9965 21.9637 -5.22701 -38.483 22.0177 -5.25609 -38.9785 22.0469 -5.28742 -39.4571 22.0809 -5.31806 -39.9739 22.1115 -5.338 -40.4877 22.1334 -5.35583 -40.9811 22.1419 -5.36729 -41.4941 22.1529 -5.37867 -42.0104 22.1676 -5.41512 -42.5723 22.1735 -5.44162 -42.9823 22.2292 -5.46119 -43.5596 22.2761 -5.43375 -44.1245 22.3195 -5.36017 -44.6886 22.381 -5.33071 -45.254 22.4269 -5.30816 -45.7234 22.4913 -5.26058 -46.3075 22.5629 -5.15971 -46.7731 22.667 -5.01713 -47.2958 22.7579 -4.89461 -47.7513 22.8749 -4.77133 -48.2299 22.9783 -4.66183 -48.6861 23.0413 -4.56592 -49.1474 23.0922 -4.52423 -49.5953 23.1465 -4.48735 -50.0432 23.1554 -4.48157 -50.1174 0.480419 -0.193686 -3.06488 0.47049 -0.849368 -2.3099 0.426282 -1.52955 -1.57819 0.39066 -2.28858 -0.928113 0.338289 -3.06685 -0.302373 0.256809 -3.833 0.335096 0.191994 -4.58392 0.99231 0.110848 -5.2153 1.49996 0.905999 -0.304189 -3.17278 0.914121 0.487781 -3.78328 0.896314 1.28107 -4.39187 0.916708 2.16202 -4.86464 0.869011 3.03004 -5.35887 0.84177 3.87308 -5.87896 0.826153 4.7084 -6.4285 0.854158 5.23871 -6.79294 1.31267 -0.387288 -3.29864 1.97233 -0.183034 -2.57536 2.66297 0.0807098 -1.90198 3.36426 0.413163 -1.27136 4.08145 0.730391 -0.650875 4.66132 1.12477 0.0620217 5.3435 1.55404 0.653931 5.69903 1.7873 1.01905 1.78074 -0.527977 -3.42182 1.26249 -0.924294 -4.17968 0.736689 -1.29934 -4.94314 0.149465 -1.73607 -5.62464 -0.595678 -1.94171 -6.25905 -1.36559 -2.11228 -6.87397 -1.96859 -2.30131 -7.64899 -1.98644 -2.30676 -7.67336 2.24281 -0.668765 -3.55705 2.2499 0.00201141 -4.29867 2.36342 0.74926 -4.95345 2.63664 1.38702 -5.67359 2.82859 2.00531 -6.43575 2.94183 2.69058 -7.15518 3.05979 3.32113 -7.92231 3.10807 3.52055 -8.20065 2.69103 -0.81419 -3.71985 3.25037 -0.408746 -2.99682 3.75343 0.0862891 -2.30046 4.25484 0.504757 -1.54319 4.73716 0.927386 -0.775882 5.22528 1.33178 -0.00244427 5.6624 1.76015 0.736347 3.12104 -0.941759 -3.88894 2.93797 -1.43453 -4.73962 2.79374 -1.99751 -5.55341 2.64861 -2.69559 -6.25457 2.51815 -3.38444 -6.96764 2.41773 -4.05555 -7.70217 2.22185 -4.77385 -8.36975 2.1539 -5.14146 -8.75679 3.54919 -1.06942 -4.05855 3.63626 -0.0733105 -4.04497 3.69493 0.924936 -4.03717 3.80678 1.91866 -4.0355 3.78908 2.91808 -4.00652 3.83588 3.91697 -4.00041 3.88089 4.91559 -4.02754 3.89363 5.25072 -4.03154 3.97773 -1.21214 -4.23372 4.67139 -0.521222 -4.43736 5.48727 0.0253662 -4.62599 6.32051 0.56154 -4.76097 7.18421 1.04909 -4.88873 8.05452 1.50548 -5.07386 8.88538 2.02206 -5.28077 8.94811 2.06033 -5.29471 4.44142 -1.35303 -4.40193 4.63315 -0.716393 -3.65498 4.97758 -0.0894047 -2.95623 5.3212 0.535026 -2.25479 5.63344 1.14911 -1.52994 5.88638 1.75171 -0.773047 6.14462 2.36243 -0.0244869 6.21778 2.55112 0.206724 4.83346 -1.46799 -4.54342 5.19808 -0.566623 -4.30977 5.54495 0.351384 -4.11756 5.84279 1.29197 -3.9545 6.1332 2.22939 -3.7624 6.38721 3.15295 -3.47513 6.70174 3.84459 -3.2741 5.31608 -1.55265 -4.73151 5.51562 -2.19021 -3.98741 5.74252 -2.89769 -3.31808 5.84509 -3.48686 -2.51661 5.90724 -4.08388 -1.7168 5.97104 -4.69393 -0.927007 5.99541 -5.14256 -0.36105 5.75973 -1.63492 -4.91015 5.99957 -0.664111 -4.90645 6.21119 0.311281 -4.8446 6.45305 1.28052 -4.79908 6.81591 2.19314 -4.61076 7.1901 3.10204 -4.42666 7.53439 3.93439 -4.25195 6.18279 -1.72197 -5.08119 6.01106 -2.14621 -5.97031 5.80709 -2.53704 -6.86788 5.82377 -3.02713 -7.7394 5.84734 -3.45784 -8.64158 5.83572 -3.83036 -9.56953 5.72473 -4.18413 -10.4983 5.71992 -4.19876 -10.5354 6.57849 -1.82685 -5.27335 7.0916 -1.93337 -4.42166 7.57301 -2.09242 -3.55972 8.16728 -2.13444 -2.75655 8.72586 -2.23389 -1.93309 9.28476 -2.3284 -1.10925 9.75092 -2.43343 -0.413472 6.97054 -1.97542 -5.5371 6.43385 -2.29174 -6.31935 5.88891 -2.59488 -7.1011 5.33776 -2.89246 -7.88065 4.73512 -3.13308 -8.64152 4.16867 -3.4129 -9.41666 3.82965 -3.56464 -9.91108 7.38956 -2.08802 -5.84081 7.73091 -2.59842 -5.05152 8.03677 -2.97792 -4.17835 8.35773 -3.36512 -3.31403 8.9049 -3.68227 -2.53941 9.45917 -3.99789 -1.76924 9.95138 -4.27769 -1.07697 7.79747 -2.2077 -6.09764 7.79471 -1.44897 -6.74903 7.7909 -0.693487 -7.40419 7.76498 0.0835745 -8.03308 7.82841 0.810532 -8.71683 7.88245 1.53636 -9.40258 7.90067 1.81214 -9.66713 8.22899 -2.32374 -6.35079 7.91426 -2.51899 -7.27968 7.62984 -2.72149 -8.21675 7.31706 -2.91181 -9.14731 6.99191 -3.10103 -10.0738 6.75054 -3.1617 -10.9127 8.5885 -2.48018 -6.60096 9.23182 -2.58694 -5.84285 9.92579 -2.69969 -5.13172 10.6364 -2.84714 -4.44379 11.3725 -2.94139 -3.77351 12.0527 -3.19605 -3.08609 12.5576 -3.27742 -2.66432 9.02462 -2.64031 -6.87685 8.90256 -3.61561 -6.69274 8.69355 -4.57186 -6.48805 8.5485 -5.54659 -6.31815 8.42002 -6.52419 -6.15147 8.347 -7.5177 -6.06419 8.31173 -8.13915 -6.00621 9.35247 -2.75439 -7.0974 9.97513 -3.01774 -6.36055 10.5806 -3.29117 -5.61313 11.1946 -3.51877 -4.85732 11.8137 -3.68975 -4.09089 12.4255 -3.9109 -3.33142 12.7073 -4.03511 -2.99869 9.78092 -2.90425 -7.38394 10.5148 -3.04628 -6.71967 11.2381 -3.29374 -6.07498 12.0129 -3.50236 -5.47824 12.7437 -3.63798 -4.80921 13.4381 -3.82023 -4.11308 14.0145 -3.93239 -3.43941 10.0811 -3.00828 -7.58344 10.8926 -2.69869 -7.08795 11.719 -2.50582 -6.55886 12.5599 -2.29808 -6.05905 13.3472 -2.06421 -5.48861 14.1318 -1.8343 -4.9128 14.6695 -1.7196 -4.49856 10.4873 -3.13128 -7.88786 10.1315 -3.11642 -8.82232 9.75967 -3.09809 -9.75043 9.38502 -3.12052 -10.6685 8.90942 -3.07446 -11.5469 8.43718 -3.0275 -12.4271 8.31 -3.01619 -12.6664 10.8765 -3.24155 -8.12664 11.3067 -3.57096 -7.28619 11.7379 -3.88914 -6.4419 12.1604 -4.22422 -5.59974 12.6436 -4.55959 -4.79103 13.0826 -4.85891 -3.94385 13.4304 -5.06911 -3.4383 11.3371 -3.32826 -8.41551 12.0709 -2.69422 -8.17129 12.745 -2.10768 -7.7224 13.3826 -1.49517 -7.2552 14.022 -0.891465 -6.77903 14.5812 -0.247164 -6.25731 14.8793 0.085313 -5.95983 11.763 -3.31502 -8.71651 11.5086 -4.20143 -9.10323 11.2714 -5.08595 -9.50498 11.0306 -5.98589 -9.86844 10.7562 -6.88305 -10.2146 10.4647 -7.76178 -10.5926 10.4163 -7.9215 -10.6716 12.1415 -3.3116 -8.99533 11.6968 -2.64651 -9.59528 11.3193 -1.98475 -10.243 10.8899 -1.32852 -10.8634 10.5422 -0.684039 -11.5444 10.0699 0.0227628 -12.0711 9.9783 0.164648 -12.1808 12.5223 -3.30699 -9.29197 11.9469 -3.96741 -9.77452 11.3206 -4.59132 -10.2418 10.685 -5.20208 -10.714 10.0896 -5.77647 -11.2759 9.60834 -6.2425 -11.7303 12.9375 -3.29092 -9.6388 13.6573 -3.52342 -8.98473 14.3153 -3.79384 -8.28187 14.9648 -4.0454 -7.56434 15.6201 -4.20997 -6.82713 16.2858 -4.46138 -6.12455 16.4007 -4.51389 -5.99637 13.2905 -3.32463 -9.97119 13.4696 -2.35104 -9.82964 13.6779 -1.40341 -9.58752 14.1078 -0.507883 -9.47266 14.5339 0.387851 -9.3457 14.8084 1.31246 -9.27051 13.6135 -3.35704 -10.2737 13.5674 -4.31018 -9.97473 13.5868 -5.26003 -9.6626 13.6549 -6.22978 -9.42822 13.7568 -7.20266 -9.22057 14.0639 -8.15209 -9.15537 14.1341 -8.35025 -9.14585 14.0079 -3.40112 -10.6447 13.6939 -2.67892 -11.261 13.3836 -1.88632 -11.7859 13.0831 -1.07858 -12.293 12.8208 -0.281763 -12.8374 12.716 0.0402177 -13.0609 14.3727 -3.43256 -11.016 14.6953 -4.30629 -10.652 14.9585 -5.23921 -10.4062 15.1263 -6.13329 -9.99091 15.3156 -7.06906 -9.69341 15.4463 -7.8209 -9.45919 14.7561 -3.36649 -11.4149 14.5081 -2.40298 -11.314 14.2536 -1.4458 -11.176 13.9887 -0.492408 -11.0317 13.7644 0.469855 -10.8775 13.5265 1.40099 -10.6011 13.4994 1.50434 -10.559 15.049 -3.28638 -11.7843 14.8543 -4.16923 -12.2117 14.6671 -5.0522 -12.6422 14.3873 -5.92222 -13.0481 14.1336 -6.79001 -13.4755 14.0767 -7.07749 -13.6127 15.3361 -3.20034 -12.1768 14.7903 -3.79894 -12.7631 14.1615 -4.34452 -13.3172 13.4619 -4.88144 -13.7886 12.7195 -5.36386 -14.2536 12.4783 -5.50724 -14.3986 15.6273 -3.06726 -12.6161 15.1417 -3.8252 -13.0517 14.4982 -4.40969 -13.5459 13.8572 -5.07199 -13.9339 13.3358 -5.7898 -14.3952 13.073 -6.17424 -14.5956 15.9614 -3.03262 -13.0839 15.8408 -3.96545 -13.4234 15.7672 -4.89708 -13.7793 15.6525 -5.85508 -14.0421 15.3575 -6.75834 -14.3537 15.2204 -7.24318 -14.4929 16.2701 -2.99809 -13.5309 17.0666 -2.65155 -13.0354 17.8447 -2.29063 -12.5212 18.633 -1.96299 -12.0005 19.1675 -1.71853 -11.6526 16.5283 -3.02287 -13.9434 15.5844 -2.75028 -14.1296 14.6474 -2.46959 -14.3375 13.7002 -2.2088 -14.5244 12.995 -2.01435 -14.6623 16.7816 -3.0671 -14.3616 17.3243 -2.23202 -14.2718 17.8741 -1.39998 -14.198 18.3897 -0.54469 -14.147 18.9064 0.310084 -14.0982 19.0052 0.474896 -14.0886 17.0269 -3.13569 -14.7577 17.9381 -3.40163 -14.443 18.8469 -3.59459 -14.0732 19.7525 -3.76125 -13.6831 20.6163 -3.90885 -13.2859 17.2992 -3.19228 -15.2025 16.8293 -4.0012 -15.5558 16.3441 -4.8067 -15.8961 15.9713 -5.60795 -16.3641 15.7613 -6.17039 -16.6586 17.5601 -3.24717 -15.6294 17.0602 -2.85087 -16.3995 16.5493 -2.42186 -17.1445 16.0384 -2.00228 -17.8947 15.6638 -1.69043 -18.4467 17.7726 -3.29749 -16.0362 17.4783 -2.36265 -16.235 17.196 -1.40562 -16.3011 16.8588 -0.464378 -16.2821 16.5229 0.477376 -16.2668 16.5043 0.533587 -16.2626 17.9628 -3.38751 -16.5023 17.7499 -2.42988 -16.6963 17.4646 -1.48783 -16.8729 17.1713 -0.549199 -17.0543 16.9804 0.147898 -17.1828 18.1008 -3.45422 -16.9994 18.0947 -4.45379 -16.9706 18.1282 -5.45236 -16.929 18.2426 -6.44375 -16.8654 18.2807 -7.07796 -16.8806 18.1833 -3.47526 -17.4185 18.7818 -4.2732 -17.4901 19.4189 -5.0365 -17.5969 20.0274 -5.82632 -17.6739 20.1225 -5.95808 -17.6867 18.2724 -3.47227 -17.8731 18.7332 -2.58478 -17.8719 19.2002 -1.70749 -17.7608 19.6034 -0.797677 -17.6625 19.7523 -0.476267 -17.6403 18.3978 -3.45885 -18.3945 18.7432 -2.53233 -18.2451 19.0929 -1.60187 -18.1359 19.4255 -0.694233 -17.8798 19.6715 0.097915 -17.6476 18.5196 -3.44668 -18.8525 19.3753 -2.97777 -18.6334 20.23 -2.5066 -18.4156 21.0602 -1.97911 -18.2353 21.3816 -1.77707 -18.1651 18.6538 -3.43374 -19.354 18.8634 -2.47461 -19.1639 19.1326 -1.52564 -18.9997 19.3854 -0.566545 -18.8724 19.4311 -0.406188 -18.8526 18.7622 -3.42642 -19.8595 18.3868 -4.18777 -20.388 18.0289 -4.95219 -20.9243 17.6581 -5.7143 -21.4551 17.6372 -5.76042 -21.4869 18.9001 -3.45401 -20.3902 19.774 -3.06509 -20.0984 20.6308 -2.63283 -19.8175 21.4768 -2.20361 -19.5375 18.9889 -3.48421 -20.8237 18.5244 -4.36832 -20.8755 18.1032 -5.27357 -20.9312 17.7524 -5.97852 -20.9763 19.1335 -3.53956 -21.3501 19.6199 -2.67375 -21.4678 19.9941 -1.75664 -21.605 20.2669 -1.07082 -21.723 19.2167 -3.59642 -21.7289 20.0018 -2.97722 -21.7164 20.7869 -2.35803 -21.7045 21.3081 -1.98661 -21.6444 19.3262 -3.65966 -22.2005 19.5744 -2.69664 -22.0957 19.8141 -1.73294 -21.9782 19.9677 -1.09164 -21.8927 19.4578 -3.73306 -22.7632 18.9328 -2.91871 -23.0105 18.4145 -2.09589 -23.2436 18.1262 -1.6052 -23.3765 19.5497 -3.82066 -23.2488 20.3577 -4.40906 -23.2789 21.1555 -4.9895 -23.1161 21.443 -5.19923 -23.0886 19.6414 -3.87205 -23.6931 19.7 -2.88021 -23.8064 19.7309 -1.88939 -23.938 19.7313 -1.74727 -23.9576 19.7342 -3.90818 -24.1377 20.5922 -3.39456 -24.1304 21.4556 -2.89048 -24.152 21.7221 -2.73074 -24.1587 19.8298 -3.94443 -24.5924 19.0217 -3.76029 -25.1519 18.2226 -3.60058 -25.7315 17.9276 -3.56568 -25.9356 19.9858 -3.92089 -25.1478 20.0905 -2.9279 -25.0929 20.2807 -2.13633 -25.0366 20.1264 -3.95563 -25.6131 21.0538 -4.17713 -25.3114 21.9027 -4.46693 -25.0861 20.2401 -3.9925 -26.0467 20.3463 -2.99839 -26.0682 20.4269 -2.13986 -26.0704 20.3515 -4.02653 -26.4924 20.0603 -3.08019 -26.3522 19.9029 -2.58488 -26.2673 20.4561 -4.05947 -27.0035 19.962 -3.25052 -27.3221 19.7422 -2.93227 -27.4859 20.577 -4.09727 -27.5926 19.6531 -3.82176 -27.8583 19.3201 -3.72241 -27.9463 20.6806 -4.16433 -28.1316 19.9183 -4.79663 -28.2699 19.7345 -4.95362 -28.2849 20.7607 -4.20956 -28.6294 20.5671 -5.17145 -28.4363 20.5574 -5.21946 -28.4277 20.7823 -4.2592 -29.2002 20.4739 -3.62345 -29.3967 20.7921 -4.31762 -29.6124 20.2695 -4.97697 -29.4389 20.8054 -4.39002 -30.0675 20.1239 -4.5383 -30.0928 20.8624 -4.4501 -30.5392 20.3216 -4.42771 -30.6277 20.9138 -4.50705 -31.0205 20.7339 -4.77065 -31.1365 21.0058 -4.6076 -31.4839 21.1848 -4.53123 -31.47 21.0951 -4.70956 -31.9461 21.0499 -4.69952 -31.9612 0 0 -3 0.49678 -0.118281 -3.05335 0.981037 -0.262454 -3.10219 1.34895 -0.348231 -3.15263 1.89351 -0.499151 -3.22693 2.55904 -0.679828 -3.35731 3.02635 -0.815418 -3.4397 3.50414 -0.98485 -3.52813 3.98913 -1.20449 -3.66622 4.52971 -1.41065 -3.85276 4.94613 -1.58182 -4.04514 5.343 -1.69298 -4.23863 5.76131 -1.80261 -4.44618 6.20565 -1.91514 -4.66522 6.55369 -1.98448 -4.82563 6.96329 -2.06184 -5.00235 7.38289 -2.13135 -5.13954 7.81486 -2.18641 -5.23212 8.39915 -2.27413 -5.36117 8.87015 -2.34836 -5.48424 9.31404 -2.49685 -5.61023 9.72695 -2.65315 -5.73263 10.1976 -2.84205 -5.88422 10.7194 -3.05157 -6.05287 11.1743 -3.18593 -6.23921 11.6482 -3.32336 -6.43503 12.1652 -3.47182 -6.65351 12.5715 -3.63676 -6.84352 12.931 -3.79077 -7.00945 13.3034 -3.94296 -7.12646 13.6761 -4.09943 -7.24552 14.0746 -4.26283 -7.37322 14.5437 -4.4499 -7.51026 14.9734 -4.6276 -7.64673 15.3919 -4.80134 -7.78867 15.8911 -5.00423 -7.97512 16.2904 -5.16735 -8.15027 16.6829 -5.33985 -8.33273 17.0983 -5.56183 -8.53195 17.4658 -5.70913 -8.7257 17.8954 -5.87997 -8.953 18.3077 -6.09071 -9.2685 18.7086 -6.32771 -9.61255 19.0776 -6.53389 -9.92827 19.4526 -6.73053 -10.2929 19.81 -6.95981 -10.683 20.11 -7.15728 -11.0351 20.3961 -7.34012 -11.3887 20.744 -7.61508 -11.7792 21.0391 -7.83188 -12.1043 21.2941 -8.03964 -12.4103 21.5174 -8.26585 -12.7492 21.7484 -8.50456 -13.1464 21.9597 -8.72989 -13.5257 22.1657 -8.95173 -13.9211 22.3921 -9.21205 -14.3601 22.5471 -9.3946 -14.6795 22.7122 -9.59664 -15.0312 22.8998 -9.83299 -15.4556 23.0684 -10.0459 -15.8832 23.2172 -10.3063 -16.3332 23.3459 -10.5238 -16.7567 23.5114 -10.7677 -17.2193 23.5981 -10.9205 -17.5326 0.49678 -0.118281 -3.05335 0.777749 -0.45877 -2.15606 1.04454 -0.84981 -1.2752 1.29148 -1.17125 -0.36104 1.52384 -1.55302 0.533535 1.66137 -1.77205 1.05543 0.981037 -0.262454 -3.10219 1.28454 -0.109937 -2.16165 1.58804 0.0462891 -1.22171 1.88936 0.113893 -0.270587 2.08732 0.0982711 0.709499 2.12435 0.094795 0.865869 1.34895 -0.348231 -3.15263 1.69073 0.558788 -3.39861 1.97357 1.48628 -3.64306 2.27041 2.41681 -3.85754 2.54119 3.15866 -4.05392 1.89351 -0.499151 -3.22693 2.06249 -1.13585 -2.47456 2.23434 -1.77136 -1.72184 2.48285 -2.42304 -1.00521 2.67609 -2.85919 -0.520141 2.55904 -0.679828 -3.35731 3.09319 -0.875337 -2.53484 3.62324 -1.06645 -1.70868 4.12896 -1.22552 -0.86078 4.54709 -1.28846 -0.208695 3.02635 -0.815418 -3.4397 3.15016 -1.7045 -2.99902 3.26927 -2.53443 -2.45402 3.23839 -3.36686 -1.90073 3.25257 -3.92261 -1.50827 3.50414 -0.98485 -3.52813 3.37656 -0.988616 -2.53631 3.29747 -0.963329 -1.53977 3.1537 -1.05236 -0.554169 3.12095 -1.10685 -0.0143317 3.98913 -1.20449 -3.66622 4.46327 -0.336122 -3.81158 4.98473 0.499246 -3.98546 5.35626 1.41702 -4.12568 5.39133 1.51596 -4.13752 4.52971 -1.41065 -3.85276 4.05221 -2.27727 -3.99756 3.55015 -3.11867 -4.19749 3.05763 -3.96338 -4.40701 2.90256 -4.19097 -4.44345 4.94613 -1.58182 -4.04514 4.80959 -2.35749 -3.42895 4.8464 -3.1629 -2.83739 4.88008 -3.87846 -2.3134 5.343 -1.69298 -4.23863 5.75562 -1.97107 -3.37121 6.01626 -2.30904 -2.46687 6.222 -2.725 -1.58106 6.24833 -2.77126 -1.48195 5.76131 -1.80261 -4.44618 5.30249 -2.67114 -4.63364 4.86526 -3.53993 -4.86607 4.36532 -4.383 -5.06432 4.28903 -4.53275 -5.10182 6.20565 -1.91514 -4.66522 6.32827 -2.82862 -4.27726 6.44094 -3.70613 -3.81112 6.54278 -4.32661 -3.45814 6.55369 -1.98448 -4.82563 6.36378 -1.10459 -5.2612 6.20265 -0.215216 -5.68905 6.09666 0.501008 -6.07596 6.96329 -2.06184 -5.00235 6.72146 -1.62442 -5.86848 6.42603 -1.1638 -6.70548 6.26172 -0.905738 -7.16925 7.38289 -2.13135 -5.13954 6.91032 -3.00124 -4.99822 6.45025 -3.8723 -4.82622 6.22441 -4.39166 -4.65374 7.81486 -2.18641 -5.23212 7.8357 -3.17138 -5.4036 7.95744 -4.12735 -5.67061 8.07965 -4.65228 -5.85446 8.39915 -2.27413 -5.36117 8.43363 -2.29397 -6.36037 8.46 -2.26924 -7.35972 8.48279 -2.22709 -7.72434 8.87015 -2.34836 -5.48424 8.51001 -3.19655 -5.87267 8.07332 -3.98413 -6.30744 7.97631 -4.19957 -6.4222 9.31404 -2.49685 -5.61023 9.19473 -3.38661 -5.16967 9.056 -4.32126 -4.84227 9.05142 -4.3524 -4.83126 9.72695 -2.65315 -5.73263 9.81511 -2.8621 -6.70658 9.83957 -3.03779 -7.67831 10.1976 -2.84205 -5.88422 10.5441 -1.94558 -6.16049 10.8535 -1.17135 -6.45107 10.7194 -3.05157 -6.05287 10.3924 -3.88166 -6.50455 10.2007 -4.39909 -6.69256 11.1743 -3.18593 -6.23921 10.642 -3.92999 -6.64296 10.4654 -4.18173 -6.76735 11.6482 -3.32336 -6.43503 11.8337 -2.38887 -6.73888 11.8884 -2.11272 -6.80514 12.1652 -3.47182 -6.65351 12.1629 -3.41066 -7.63635 12.5715 -3.63676 -6.84352 12.3257 -3.30664 -7.75488 12.3142 -3.29123 -7.79787 12.931 -3.79077 -7.00945 12.83 -3.39853 -7.7895 13.3034 -3.94296 -7.12646 13.3602 -3.49121 -7.60127 13.6761 -4.09943 -7.24552 13.8127 -4.00476 -6.72756 14.0746 -4.26283 -7.37322 14.1668 -4.30068 -7.10121 14.5437 -4.4499 -7.51026 14.4762 -4.57673 -7.56675 0 0 -3 0.293782 -0.32948 -3.08037 0.619658 -0.682246 -3.23082 0.886067 -0.956894 -3.37509 1.24849 -1.35613 -3.51832 1.54273 -1.6962 -3.64345 1.85984 -2.01505 -3.7588 2.20963 -2.35422 -3.88261 2.58007 -2.73675 -4.01879 2.89217 -3.03232 -4.17873 3.23789 -3.37511 -4.34885 3.59927 -3.73821 -4.50961 4.00074 -4.15023 -4.69223 4.34574 -4.52851 -4.85733 4.69207 -4.8555 -5.06321 5.06641 -5.18086 -5.26556 5.46367 -5.5018 -5.48117 5.8779 -5.74832 -5.69017 6.2442 -5.98843 -5.88184 6.6435 -6.27345 -6.12378 6.9761 -6.52004 -6.35985 7.29335 -6.76496 -6.62458 7.61843 -7.0148 -6.89834 7.86822 -7.22599 -7.13071 8.13184 -7.51106 -7.45904 8.36005 -7.77709 -7.76945 8.62067 -8.07895 -8.12293 8.85923 -8.33824 -8.45746 9.13201 -8.59546 -8.79952 9.51838 -8.84761 -9.18205 9.83355 -9.05912 -9.49724 10.1955 -9.28658 -9.81392 10.5313 -9.48291 -10.0924 10.8152 -9.6837 -10.3497 11.1183 -9.86995 -10.6243 11.4168 -10.0579 -10.8788 11.7682 -10.1965 -11.2334 12.0436 -10.3054 -11.5109 12.4066 -10.4388 -11.8706 12.7119 -10.5538 -12.1742 13.0901 -10.6865 -12.5284 
</DataArray>
</Points>
<Lines>
<DataArray type="Int32" Name="connectivity" NumberOfComponents="1" format="ascii" >