<?xml version="1.0"?><VTKFile type="PolyData" version="0.1" byte_order="LittleEndian">
<PolyData>
<Piece NumberOfLines="8" NumberOfPoints="80">
<PointData Scalars=" PointData">
<DataArray type="Float32" Name="time" NumberOfComponents="1" format="ascii" >
0 0.297077 0.594531 0.894238 1.19275 1.49513 1.77843 2.08344 2.38984 2.397 2.70483 3.01406 3.02829 3.33901 3.63735 3.95089 4.26589 4.27337 4.58988 4.90069 5.22016 5.54115 5.54263 5.86516 6.18923 6.20633 6.53205 6.85934 6.88993 7.21897 7.54961 7.55358 7.88587 8.21981 8.22332 8.55892 8.87373 9.21259 9.55316 9.5635 9.90584 10 6.62587 7.26681 7.91593 8.57342 9.23951 9.91441 10 7.28019 7.94202 8.61228 9.29119 9.97897 10 7.92133 8.62237 9.33235 10 8.59905 9.23707 9.88322 10 9.29131 9.95127 10 9.9598 10 7 7.3234 7.6387 7.96488 8.28843 8.61747 8.94796 8.95179 9.28377 9.61265 9.94758 10 
</DataArray>

</PointData>
<CellData Scalars=" CellData">
<DataArray type="Float32" Name="radius" NumberOfComponents="1" format="ascii" >
0.131367 0.0488901 0.0536881 0.0424739 0.0521405 0.0478435 0.055187 0.141925 
</DataArray>
<DataArray type="Float32" Name="subType" NumberOfComponents="1" format="ascii" >
1 2 2 2 2 2 2 4 
</DataArray>
<DataArray type="Float32" Name="creationTime" NumberOfComponents="1" format="ascii" >
0 6.62587 7.28019 7.92133 8.59905 9.29131 9.9598 7 
</DataArray>

</CellData>
<Points>
<DataArray type="Float32" Name="Coordinates" NumberOfComponents="3" format="ascii" >
0 0 -3 -0.618814 0.598107 -3.50925 -1.23165 1.02402 -4.17015 -1.88806 1.38264 -4.83387 -2.43351 1.75099 -5.57555 -2.95998 2.1177 -6.34259 -3.352 2.31329 -7.16618 -3.73561 2.55141 -8.05845 -4.07421 2.74245 -8.97978 -4.08222 2.74735 -9.00111 -4.42749 2.95885 -9.91547 -4.7149 3.23902 -10.8314 -4.72843 3.25197 -10.8733 -5.02321 3.53408 -11.7863 -5.16754 3.79078 -12.6956 -5.34694 4.0198 -13.6523 -5.5582 4.25096 -14.602 -5.56304 4.25641 -14.6246 -5.75849 4.43826 -15.5883 -5.89683 4.62107 -16.5385 -6.0421 4.80407 -17.5108 -6.25454 5.04278 -18.4584 -6.25548 5.04388 -18.4627 -6.58043 5.22143 -19.3916 -6.90245 5.26465 -20.3374 -6.9189 5.26615 -20.3874 -7.17421 5.17455 -21.3499 -7.39116 5.037 -22.3163 -7.41143 5.02436 -22.4064 -7.57919 4.94486 -23.3891 -7.7056 4.8698 -24.3782 -7.7069 4.86866 -24.39 -7.73979 4.71557 -25.3777 -7.73684 4.52093 -26.3586 -7.73687 4.51903 -26.3689 -7.70235 4.42795 -27.3641 -7.65806 4.33912 -28.2924 -7.61607 4.22215 -29.2846 -7.58583 4.1045 -30.2772 -7.58488 4.10108 -30.3073 -7.53841 4.10709 -31.3062 -7.56171 4.10306 -31.5793 -1.23165 1.02402 -4.17015 -1.67241 0.188854 -4.49913 -2.13424 -0.61134 -4.88175 -2.59645 -1.4598 -5.13958 -3.05097 -2.31523 -5.38788 -3.49125 -3.19558 -5.56436 -3.54503 -3.30616 -5.59126 -2.43351 1.75099 -5.57555 -2.93363 2.46135 -5.0803 -3.40254 3.14733 -4.52393 -3.83899 3.8641 -3.98009 -4.271 4.57472 -3.42477 -4.28388 4.59636 -3.40778 -3.352 2.31329 -7.16618 -2.55707 2.91933 -7.19448 -1.70706 3.4459 -7.17996 -0.997897 4.04564 -7.19111 -4.08222 2.74735 -9.00111 -4.93053 3.08899 -8.59658 -5.7992 3.361 -8.18255 -5.95441 3.41313 -8.10926 -4.72843 3.25197 -10.8733 -5.01482 2.33573 -11.1534 -5.03708 2.26922 -11.1749 -5.16754 3.79078 -12.6956 -5.10982 3.80312 -12.6938 0 0 -3 0.490425 -0.670144 -3.55713 0.966438 -1.31516 -4.10474 1.45848 -1.97638 -4.67102 1.92648 -2.60699 -5.27 2.40128 -3.24895 -5.87204 2.79229 -3.86314 -6.55752 2.79706 -3.87014 -6.56543 3.21513 -4.4781 -7.24042 3.71196 -5.05019 -7.87183 4.27521 -5.54742 -8.53176 4.36018 -5.62312 -8.63863 
</DataArray>
</Points>
<Lines>
<DataArray type="Int32" Name="connectivity" NumberOfComponents="1" format="ascii" >
0 1 2 3 4 5 6 7 8 9 10 11 12 13 14 15 16 17 18 19 20 21 22 23 24 25 26 27 28 29 30 31 32 33 34 35 36 37 38 39 40 41 42 43 44 45 46 47 48 49 50 51 52 53 54 55 56 57 58 59 60 61 62 63 64 65 66 67 68 69 70 71 72 73 74 75 76 77 78 79 
</DataArray>
<DataArray type="Int32" Name="offsets" NumberOfComponents="1" format="ascii" >
42 49 55 59 63 66 68 80 
</DataArray>

</Lines>
</Piece>
</PolyData>
</VTKFile>
