<?xml version="1.0"?><VTKFile type="PolyData" version="0.1" byte_order="LittleEndian">
<PolyData>
<Piece NumberOfLines="20" NumberOfPoints="147">
<PointData Scalars=" PointData">
<DataArray type="Float32" Name="time" NumberOfComponents="1" format="ascii" >
0 0.170305 0.341084 0.512341 0.684077 0.856297 1.029 1.2022 1.37588 1.55006 1.72473 1.89991 2.07559 2.25177 2.42846 2.60566 2.78337 2.96161 3.14036 3.31964 3.49944 3.67977 3.86063 4.04203 4.22397 4.40645 4.58948 4.77305 4.95717 5.14186 5.32709 5.5129 5.69926 5.8862 6.0737 6.26179 6.45045 6.63969 6.82952 7.01995 7.21096 7.40257 7.59479 7.78761 7.98103 8.17507 8.36973 8.56501 8.76091 8.95744 9.1546 9.3524 9.55084 9.74993 9.94966 10 6.58286 7.26921 7.99823 8.77555 9.60805 10 6.77251 7.45887 8.18788 8.96521 9.79771 10 6.96276 7.64911 8.37813 9.15545 9.98795 10 7.15359 7.83995 8.56896 9.34629 10 7.34503 8.03138 8.76039 9.53772 10 7.53706 8.22342 8.95243 9.72975 10 7.7297 8.41605 9.14506 9.92239 10 7.92294 8.6093 9.33831 10 8.1168 8.80315 9.53217 10 8.31127 8.99762 9.72664 10 8.50636 9.19272 9.92173 10 8.70207 9.38843 10 8.89842 9.58477 10 9.09539 9.78174 10 9.293 9.97935 10 9.49124 10 9.69014 10 9.88968 10 7 7.1703 7.34108 7.51234 7.68408 7.8563 8.029 8.2022 8.37588 8.55006 8.72473 8.89991 9.07559 9.25177 9.42846 9.60566 9.78337 9.96161 10 
</DataArray>

</PointData>
<CellData Scalars=" CellData">
<DataArray type="Float32" Name="radius" NumberOfComponents="1" format="ascii" >
0.13 0.05 0.05 0.05 0.05 0.05 0.05 0.05 0.05 0.05 0.05 0.05 0.05 0.05 0.05 0.05 0.05 0.05 0.05 0.13 
</DataArray>
<DataArray type="Float32" Name="subType" NumberOfComponents="1" format="ascii" >
1 2 2 2 2 2 2 2 2 2 2 2 2 2 2 2 2 2 2 4 
</DataArray>
<DataArray type="Float32" Name="creationTime" NumberOfComponents="1" format="ascii" >
0 6.58286 6.77251 6.96276 7.15359 7.34503 7.53706 7.7297 7.92294 8.1168 8.31127 8.50636 8.70207 8.89842 9.09539 9.293 9.49124 9.69014 9.88968 7 
</DataArray>

</CellData>
<Points>
<DataArray type="Float32" Name="Coordinates" NumberOfComponents="3" format="ascii" >
0 0 -1.2 0.3177 0.377768 -1.27974 0.651278 0.733186 -1.39111 1.01041 1.06548 -1.4941 1.36077 1.37614 -1.66941 1.70729 1.68964 -1.8473 2.05688 1.97273 -2.06558 2.40539 2.25063 -2.29211 2.75352 2.52766 -2.52028 3.08042 2.77522 -2.80637 3.42006 3.00506 -3.0924 3.7877 3.23437 -3.34193 4.14015 3.49282 -3.58479 4.5042 3.74904 -3.81242 4.86367 4.0162 -4.0347 5.2237 4.27806 -4.26231 5.58151 4.52152 -4.51271 5.93309 4.77702 -4.75991 6.27919 5.02206 -5.02482 6.62064 5.25768 -5.30391 6.9456 5.50386 -5.59338 7.27004 5.7469 -5.88608 7.58883 5.98827 -6.18627 7.90696 6.23489 -6.48287 8.24404 6.43882 -6.79075 8.59076 6.60989 -7.1078 8.93989 6.78901 -7.41768 9.2732 6.94162 -7.7577 9.6049 7.06957 -8.10927 9.93442 7.18885 -8.4659 10.2572 7.29879 -8.8316 10.5211 7.40869 -9.24181 10.8201 7.47768 -9.63657 11.1127 7.55627 -10.0343 11.3633 7.66051 -10.4543 11.6454 7.77456 -10.851 11.9302 7.88418 -11.247 12.2075 7.99711 -11.6475 12.4931 8.12738 -12.0367 12.8074 8.27469 -12.3966 13.0941 8.42929 -12.7759 13.3732 8.57895 -13.1628 13.6528 8.70575 -13.5575 13.9519 8.82593 -13.9397 14.244 8.98737 -14.312 14.5368 9.15447 -14.6813 14.8247 9.33737 -15.0469 15.0782 9.56528 -15.4126 15.2716 9.79237 -15.8139 15.4695 10.0126 -16.2168 15.6501 10.225 -16.6319 15.8277 10.4356 -17.0492 16.0143 10.6227 -17.4736 16.1769 10.803 -17.9107 16.3338 10.9643 -18.3572 16.3732 11.0048 -18.4696 0.3177 0.377768 -1.27974 0.667298 0.126483 -1.0255 1.05532 -0.101452 -0.807592 1.42067 -0.369787 -0.596595 1.76812 -0.64767 -0.368441 1.92536 -0.761138 -0.257491 0.651278 0.733186 -1.39111 1.00804 0.482794 -1.63611 1.36494 0.232222 -1.88072 1.68131 -0.03757 -2.15844 2.00448 -0.304673 -2.43086 2.07981 -0.369335 -2.49131 1.01041 1.06548 -1.4941 0.617867 1.31886 -1.67217 0.231122 1.56752 -1.86862 -0.150646 1.82179 -2.06763 -0.515932 2.08282 -2.28769 -0.521011 2.08648 -2.29078 1.36077 1.37614 -1.66941 1.29774 1.26767 -2.15342 1.22781 1.16782 -2.63833 1.12319 1.0314 -3.10784 1.0284 0.950516 -3.4833 1.70729 1.68964 -1.8473 1.81427 1.3321 -2.18005 1.93903 0.986843 -2.51951 2.05435 0.641167 -2.86187 2.12946 0.433182 -3.0369 2.05688 1.97273 -2.06558 1.96279 2.26473 -1.67077 1.85111 2.54537 -1.27231 1.73649 2.8235 -0.872929 1.69284 2.91494 -0.741164 2.40539 2.25063 -2.29211 2.08336 2.32916 -2.66646 1.76979 2.44067 -3.0396 1.45586 2.53896 -3.41614 1.42697 2.54857 -3.45342 2.75352 2.52766 -2.52028 2.61735 2.97099 -2.33342 2.48575 3.42345 -2.1662 2.37216 3.80659 -2.01379 3.08042 2.77522 -2.80637 2.80029 3.07322 -3.09399 2.46884 3.35655 -3.33867 2.27448 3.54968 -3.47237 3.42006 3.00506 -3.0924 3.34052 2.65108 -3.43646 3.25658 2.29633 -3.77867 3.2315 2.16797 -3.90179 3.7877 3.23437 -3.34193 3.88773 2.86802 -3.66717 3.9716 2.51101 -4.00704 3.97999 2.47421 -4.0426 4.14015 3.49282 -3.58479 3.77758 3.5264 -3.92745 3.46416 3.55024 -4.20832 4.5042 3.74904 -3.81242 4.78877 3.59887 -3.4297 4.95757 3.51746 -3.21025 4.86367 4.0162 -4.0347 4.66306 4.45565 -3.90568 4.60305 4.59138 -3.86863 5.2237 4.27806 -4.26231 5.10327 4.76321 -4.25118 5.0998 4.77738 -4.25075 5.58151 4.52152 -4.51271 5.45714 4.5734 -4.86096 5.93309 4.77702 -4.75991 5.92461 4.9295 -4.5888 6.27919 5.02206 -5.02482 6.23644 4.9935 -5.08916 0 0 -1.2 -0.480901 -0.0940253 -1.29946 -0.956957 -0.184515 -1.42268 -1.42752 -0.249282 -1.57881 -1.90167 -0.307766 -1.72633 -2.38643 -0.354745 -1.83946 -2.86814 -0.370662 -1.97253 -3.3445 -0.380847 -2.12409 -3.82048 -0.388671 -2.277 -4.30036 -0.366193 -2.41561 -4.7851 -0.355021 -2.53767 -5.27286 -0.343762 -2.64709 -5.74966 -0.313449 -2.79453 -6.21876 -0.247803 -2.95463 -6.68274 -0.200906 -3.13497 -7.14298 -0.140198 -3.3207 -7.60609 -0.0720956 -3.49645 -8.07426 -0.00507454 -3.65873 -8.17485 0.00953232 -3.69375 
</DataArray>
</Points>
<Lines>
<DataArray type="Int32" Name="connectivity" NumberOfComponents="1" format="ascii" >
0 1 2 3 4 5 6 7 8 9 10 11 12 13 14 15 16 17 18 19 20 21 22 23 24 25 26 27 28 29 30 31 32 33 34 35 36 37 38 39 40 41 42 43 44 45 46 47 48 49 50 51 52 53 54 55 56 57 58 59 60 61 62 63 64 65 66 67 68 69 70 71 72 73 74 75 76 77 78 79 80 81 82 83 84 85 86 87 88 89 90 91 92 93 94 95 96 97 98 99 100 101 102 103 104 105 106 107 108 109 110 111 112 113 114 115 116 117 118 119 120 121 122 123 124 125 126 127 128 129 130 131 132 133 134 135 136 137 138 139 140 141 142 143 144 145 146 
</DataArray>
<DataArray type="Int32" Name="offsets" NumberOfComponents="1" format="ascii" >
56 62 68 74 79 84 89 94 98 102 106 110 113 116 119 122 124 126 128 147 
</DataArray>

</Lines>
</Piece>
</PolyData>
</VTKFile>
