<?xml version="1.0"?><VTKFile type="PolyData" version="0.1" byte_order="LittleEndian">
<PolyData>
<Piece NumberOfLines="122" NumberOfPoints="801">
<PointData Scalars=" PointData">
<DataArray type="Float32" Name="time" NumberOfComponents="1" format="ascii" >
0 0.143921 0.299858 0.457144 0.615822 0.762604 0.90478 1.06896 1.21812 1.39289 1.57564 1.70295 1.85739 2.02675 2.19891 2.32585 2.44568 2.59446 2.76034 2.89979 3.07741 3.23481 3.39362 3.55701 3.68861 3.86049 4.00967 4.16739 4.30298 4.47637 4.62788 4.76986 4.94241 5.10324 5.25783 5.4231 5.59567 5.74016 5.86784 6.03884 6.18842 6.35136 6.53999 6.7262 6.89406 7.05999 7.21789 7.38674 7.55538 7.74876 7.89204 8.05648 8.19979 8.35157 8.54225 8.70397 8.89373 9.05653 9.20188 9.35134 9.49909 9.68709 9.86747 10.046 10.177 10.3304 10.496 10.665 10.8286 11.0266 11.2156 11.3625 11.5399 11.7254 11.8932 12.09 12.3008 12.5019 12.6726 12.8629 13.0537 13.2485 13.4307 13.6161 13.8023 13.9927 14.1774 14.3532 14.5301 14.7179 14.9162 15.0872 15.2655 15.4319 15.62 15.8356 16.0007 16.1965 16.3804 16.5762 16.7636 16.9382 17.0921 17.2956 17.4748 17.6698 17.8832 18.0535 18.2329 18.4236 18.6641 18.8536 19.0726 19.2649 19.4666 19.6462 19.8626 20.0659 20.2805 20.4533 20.6275 20.8061 20.9895 21 7.72663 9.19063 10.8558 12.7863 15.083 17.9183 21 7.89993 9.8316 12.0287 14.5758 17.6062 21 8.07478 9.25984 10.6077 12.1704 14.0295 16.3246 19.3247 21 8.25122 9.50773 10.9369 12.5937 14.565 16.9984 20.1794 21 8.41447 9.83479 11.4503 13.3232 15.5514 18.302 21 8.57263 9.88234 11.372 13.099 15.1537 17.6902 21 8.75532 10.2209 11.8879 13.8205 16.1198 18.9581 21 8.92134 10.5978 12.5046 14.7153 17.3454 20.5922 21 9.1159 10.8601 12.844 15.1439 17.8803 21 9.3194 10.8287 12.5454 14.5356 16.9035 19.8265 21 9.46121 10.9999 12.7499 14.7788 17.1927 20.1725 21 9.63328 10.9596 12.4681 14.217 16.2977 18.8662 21 9.822 11.2694 12.9156 14.8242 17.0949 19.898 21 10.0139 11.3236 12.8131 14.5401 16.5947 19.131 21 10.1554 11.4812 12.989 14.7372 16.8169 19.3844 21 10.2891 11.9517 13.8427 16.0351 18.6434 21 10.455 11.757 13.2378 14.9547 16.9972 19.5186 21 10.6401 12.1389 13.8436 15.8199 18.1712 21 10.7957 12.4632 14.3598 16.5586 19.1746 21 10.994 12.356 13.9052 15.7012 17.8379 20.4757 21 11.1697 12.4691 13.9469 15.6603 17.6987 20.2151 21 11.3471 12.9477 14.7682 16.8788 19.3898 21 11.5296 13.0298 14.736 16.7141 19.0675 21 11.6767 13.1652 14.8583 16.8211 19.1563 21 11.8688 13.182 14.6757 16.4074 18.4676 21 12.0356 13.5035 15.1732 17.1089 19.4118 21 12.2119 13.632 15.2471 17.1196 19.3474 21 12.3636 13.6857 15.1893 16.9326 19.0067 21 12.5576 14.0386 15.7231 17.6759 19.9993 21 12.7272 14.2007 15.8766 17.8196 20.1312 21 12.8861 14.5618 16.4678 18.6775 21 13.0793 14.806 16.77 19.0469 21 13.2594 15.068 17.125 19.5098 21 13.4326 14.6861 16.1117 17.7645 19.7309 21 13.6178 14.9613 16.4894 18.261 20.3688 21 13.8113 15.9332 18.3467 21 13.9733 15.6203 17.4937 19.6655 21 14.1165 15.9003 17.9293 20.2816 21 14.3083 15.6546 17.1859 18.9612 21 14.4761 15.9774 17.6849 19.6646 21 14.659 15.9328 17.3817 19.0614 21 14.8708 16.4675 18.2836 20.389 21 15.0799 16.2486 17.5779 19.1191 20.9526 21 15.2685 16.5411 17.9886 19.6667 21 15.4549 16.8406 18.4167 20.244 21 15.6324 17.2348 19.0573 21 15.8222 17.2028 18.773 20.5935 21 16.0119 17.5403 19.2786 21 16.2295 17.7151 19.4049 21 16.3907 18.1272 20.1024 21 16.5758 18.0053 19.6313 21 16.7372 17.9419 19.3122 20.9008 21 16.9081 18.4143 20.1274 21 17.1229 18.6572 20.4022 21 17.3052 18.7397 20.3712 21 17.5191 18.8398 20.3418 21 17.7027 19.0238 20.5264 21 17.8666 19.3002 20.9308 21 18.0353 19.339 20.8219 21 18.202 19.7466 21 18.4142 19.922 21 18.6179 19.8798 21 18.8196 20.2798 21 18.9676 20.2285 21 19.141 20.4486 21 19.3283 21 19.5193 21 19.7044 21 19.9284 21 20.1424 21 20.3088 21 20.5098 21 20.72 21 20.9101 21 7 7.12188 7.24798 7.37597 7.50227 7.62057 7.7431 7.88125 8.00572 8.12449 8.2522 8.3677 8.51439 8.65768 8.79238 8.94756 9.08081 9.19697 9.34533 9.47554 9.61554 9.75108 9.88658 10.02 10.1285 10.2473 10.3794 10.5346 10.6679 10.8055 10.9374 11.0732 11.2267 11.3466 11.4703 11.6036 11.7544 11.8882 12.0247 12.1526 12.2932 12.4536 12.5959 12.7648 12.918 13.0506 13.2133 13.3531 13.4985 13.642 13.8036 13.9375 14.0796 14.2201 14.3805 14.5234 14.6893 14.847 15.0117 15.1542 15.3019 15.4505 15.6033 15.7516 15.9335 16.0888 16.2658 16.406 16.5495 16.7218 16.8647 17.031 17.1783 17.3363 17.4817 17.6383 17.8006 17.9441 18.0885 18.2565 18.3978 18.5671 18.7272 18.8886 19.0522 19.1961 19.3417 19.5182 19.6664 19.8221 19.9766 20.158 20.309 20.4709 20.6267 20.7844 20.9684 21 14.6559 16.5466 18.697 21 14.798 16.1594 17.7078 19.503 21 14.9422 16.4066 18.0721 20.0031 21 15.0846 16.5106 18.1325 20.0129 21 15.218 16.5604 18.0872 19.8573 21 15.3562 16.6388 18.0976 19.7888 21 15.5121 17.0465 18.7917 20.815 21 15.6525 16.7721 18.0454 19.5216 21 15.7866 17.1221 18.6411 20.4021 21 15.9308 17.3496 18.9633 20.8342 21 16.0612 17.3952 18.9124 20.6714 21 16.2269 17.9041 19.8118 21 16.3889 17.9285 19.6797 21 16.5411 17.764 19.1548 20.7673 21 16.7166 18.1755 19.8348 21 16.8673 18.1441 19.5964 21 16.9987 18.6132 20.4496 21 17.1666 18.4626 19.9367 21 17.314 18.902 20.7083 21 17.4725 18.9316 20.5912 21 17.626 19.0303 20.6276 21 17.7795 19.0391 20.4717 21 17.9307 19.3801 21 18.0537 19.8399 21 18.1884 19.6413 21 18.3382 19.9222 21 18.5143 20.0847 21 18.6655 20.0351 21 18.8217 20.1486 21 18.9715 20.5747 21 19.1257 20.6708 21 19.3001 20.8047 21 19.4364 21 19.577 20.8612 21 19.7286 21 19.9001 21 20.0524 21 20.2077 21 20.3533 21 20.5134 21 20.6961 21 20.8583 21 14 14.1387 14.2734 14.3752 14.5051 14.6343 14.7602 14.8831 15.005 15.137 15.2611 15.4002 15.5273 15.6664 15.8041 15.9238 16.0689 16.1932 16.3236 16.4586 16.58 16.7268 16.8598 16.978 17.1296 17.2835 17.3893 17.5078 17.6272 17.7492 17.8825 18.0218 18.1504 18.2805 18.3992 18.5429 18.6829 18.8132 18.9409 19.0898 19.2215 19.3778 19.5243 19.6379 19.7788 19.9413 20.0996 20.2086 20.3239 20.4666 20.6392 20.8076 20.9419 21 20.6115 21 20.7614 21 20.8748 21 
</DataArray>

</PointData>
<CellData Scalars=" CellData">
<DataArray type="Float32" Name="radius" NumberOfComponents="1" format="ascii" >
0.146454 0.0487213 0.0477486 0.0511903 0.0552933 0.0558205 0.049025 0.0433618 0.0479162 0.0539891 0.0461646 0.0442374 0.0547709 0.0540132 0.0539564 0.0472958 0.0529635 0.0437392 0.0506644 0.0493971 0.0554591 0.0513994 0.0546153 0.0550573 0.0520594 0.0611852 0.0563977 0.0490682 0.0519857 0.0532389 0.0474398 0.057433 0.0478022 0.0486305 0.0555692 0.0504205 0.0466382 0.0574145 0.0444757 0.0487786 0.0426966 0.0513726 0.0448015 0.0478131 0.0522695 0.0512723 0.0610123 0.0449385 0.0477205 0.0557092 0.047372 0.0456229 0.0461045 0.0545087 0.053253 0.042787 0.0532644 0.0549145 0.0464961 0.0421112 0.0545188 0.0424223 0.0488449 0.0504552 0.0506177 0.0512506 0.0401028 0.0554744 0.0514683 0.0573981 0.0476466 0.0477178 0.0505131 0.0511075 0.0521899 0.124476 0.0477594 0.0616848 0.0553522 0.0483793 0.0440501 0.0505178 0.0505359 0.05177 0.0535174 0.0522294 0.0479121 0.0557683 0.0488756 0.0365945 0.0509651 0.0549014 0.0540878 0.054391 0.0499584 0.0498578 0.04489 0.0496135 0.0368975 0.0486637 0.0522282 0.0616315 0.0535648 0.0512338 0.0489518 0.0627156 0.0494477 0.049216 0.0493689 0.0532349 0.0531113 0.0490626 0.0458715 0.0417407 0.0513101 0.04773 0.0459241 0.0497312 0.126365 0.043355 0.0522783 0.0585791 
</DataArray>
<DataArray type="Float32" Name="subType" NumberOfComponents="1" format="ascii" >
1 2 2 2 2 2 2 2 2 2 2 2 2 2 2 2 2 2 2 2 2 2 2 2 2 2 2 2 2 2 2 2 2 2 2 2 2 2 2 2 2 2 2 2 2 2 2 2 2 2 2 2 2 2 2 2 2 2 2 2 2 2 2 2 2 2 2 2 2 2 2 2 2 2 2 4 2 2 2 2 2 2 2 2 2 2 2 2 2 2 2 2 2 2 2 2 2 2 2 2 2 2 2 2 2 2 2 2 2 2 2 2 2 2 2 2 2 2 4 2 2 2 
</DataArray>
<DataArray type="Float32" Name="creationTime" NumberOfComponents="1" format="ascii" >
0 7.72663 7.89993 8.07478 8.25122 8.41447 8.57263 8.75532 8.92134 9.1159 9.3194 9.46121 9.63328 9.822 10.0139 10.1554 10.2891 10.455 10.6401 10.7957 10.994 11.1697 11.3471 11.5296 11.6767 11.8688 12.0356 12.2119 12.3636 12.5576 12.7272 12.8861 13.0793 13.2594 13.4326 13.6178 13.8113 13.9733 14.1165 14.3083 14.4761 14.659 14.8708 15.0799 15.2685 15.4549 15.6324 15.8222 16.0119 16.2295 16.3907 16.5758 16.7372 16.9081 17.1229 17.3052 17.5191 17.7027 17.8666 18.0353 18.202 18.4142 18.6179 18.8196 18.9676 19.141 19.3283 19.5193 19.7044 19.9284 20.1424 20.3088 20.5098 20.72 20.9101 7 14.6559 14.798 14.9422 15.0846 15.218 15.3562 15.5121 15.6525 15.7866 15.9308 16.0612 16.2269 16.3889 16.5411 16.7166 16.8673 16.9987 17.1666 17.314 17.4725 17.626 17.7795 17.9307 18.0537 18.1884 18.3382 18.5143 18.6655 18.8217 18.9715 19.1257 19.3001 19.4364 19.577 19.7286 19.9001 20.0524 20.2077 20.3533 20.5134 20.6961 20.8583 14 20.6115 20.7614 20.8748 
</DataArray>

</CellData>
<Points>
<DataArray type="Float32" Name="Coordinates" NumberOfComponents="3" format="ascii" >
0 0 -3 -0.366738 0.0825494 -3.29938 -0.775544 0.182982 -3.60397 -1.19244 0.253561 -3.9117 -1.60503 0.257814 -4.23862 -1.9863 0.261598 -4.53985 -2.3565 0.300197 -4.82639 -2.79268 0.343647 -5.14394 -3.19513 0.396279 -5.41972 -3.66389 0.467058 -5.7427 -4.13395 0.57229 -6.0976 -4.45857 0.638233 -6.34916 -4.85184 0.708382 -6.65578 -5.28135 0.784749 -6.99232 -5.71816 0.904278 -7.31963 -6.05135 0.98856 -7.54527 -6.37676 1.05574 -7.74451 -6.77657 1.13843 -7.99726 -7.22713 1.21865 -8.27276 -7.618 1.28173 -8.48261 -8.09403 1.38093 -8.77904 -8.49603 1.44685 -9.07498 -8.91603 1.48146 -9.35663 -9.37136 1.48874 -9.60842 -9.74312 1.5107 -9.79874 -10.1888 1.59802 -10.1002 -10.5793 1.67673 -10.3536 -10.9929 1.7665 -10.6159 -11.3527 1.84597 -10.8323 -11.811 1.94759 -11.1096 -12.1967 2.05562 -11.3656 -12.5623 2.13559 -11.6054 -12.9565 2.29859 -11.935 -13.3269 2.46198 -12.2306 -13.6837 2.6129 -12.5154 -14.06 2.76918 -12.8268 -14.4577 2.8739 -13.1678 -14.784 2.96035 -13.4598 -15.0705 3.04025 -13.7177 -15.4385 3.14021 -14.0802 -15.7586 3.24668 -14.3917 -16.1309 3.29149 -14.7211 -16.5252 3.35524 -15.1367 -16.9041 3.41926 -15.5544 -17.2358 3.48118 -15.9372 -17.573 3.54064 -16.306 -17.9006 3.61989 -16.6448 -18.2488 3.69133 -17.0104 -18.5677 3.7529 -17.401 -18.9627 3.80752 -17.8237 -19.2521 3.82851 -18.1404 -19.5831 3.85394 -18.5034 -19.8712 3.85665 -18.8196 -20.1729 3.85981 -19.1563 -20.5497 3.88445 -19.5788 -20.82 3.88327 -19.9748 -21.1316 3.89795 -20.4413 -21.3952 3.89642 -20.8428 -21.6282 3.89349 -21.2017 -21.8349 3.89037 -21.589 -22.0322 3.88856 -21.9746 -22.2532 3.86063 -22.4774 -22.4353 3.82768 -22.97 -22.5964 3.83718 -23.4638 -22.6781 3.85908 -23.8346 -22.7682 3.87676 -24.2697 -22.8487 3.85301 -24.7413 -22.902 3.81164 -25.2239 -22.9557 3.75223 -25.688 -22.9862 3.64617 -26.2455 -22.9748 3.57584 -26.782 -22.9842 3.55034 -27.2008 -22.9913 3.53426 -27.7063 -22.9985 3.5176 -28.2334 -23.0247 3.49768 -28.7079 -23.0618 3.47681 -29.2631 -23.0718 3.45407 -29.8573 -23.0759 3.43601 -30.4226 -23.0901 3.43358 -30.9013 -23.1134 3.46116 -31.4325 -23.1549 3.50213 -31.9618 -23.1547 3.52451 -32.5037 -23.1404 3.56464 -33.0078 -23.1342 3.6016 -33.5199 -23.1014 3.60465 -34.0329 -23.0721 3.60869 -34.5567 -23.0413 3.62116 -35.0632 -23.002 3.62356 -35.5434 -22.9742 3.61932 -36.0262 -22.9415 3.61921 -36.5373 -22.8951 3.60558 -37.0743 -22.8819 3.65855 -37.5351 -22.9162 3.66369 -38.0164 -22.9617 3.67387 -38.4633 -23.0239 3.68552 -38.9658 -23.018 3.73685 -39.5425 -23.0143 3.77627 -39.983 -23.0056 3.80416 -40.5053 -22.9995 3.8037 -40.9953 -23.0007 3.8069 -41.5156 -22.9989 3.83982 -42.0114 -22.9971 3.86996 -42.472 -22.9879 3.89015 -42.8772 -23.0039 3.89776 -43.4125 -22.977 3.8833 -43.8819 -22.9635 3.89113 -44.3921 -22.9473 3.89564 -44.9486 -22.9527 3.83605 -45.388 -22.9727 3.78106 -45.8501 -22.9799 3.7265 -46.341 -22.9895 3.66822 -46.9594 -22.9981 3.62137 -47.445 -22.9698 3.5799 -48.0049 -22.9454 3.54428 -48.4952 -22.9302 3.50872 -49.0088 -22.9163 3.47766 -49.4648 -22.9045 3.4599 -50.0138 -22.8947 3.43819 -50.528 -22.9085 3.43511 -51.0696 -22.9205 3.4319 -51.5045 -22.9332 3.4387 -51.9418 -22.8927 3.46197 -52.387 -22.8674 3.52106 -52.8407 -22.8656 3.52431 -52.8667 -0.366738 0.0825494 -3.29938 -0.980958 -0.171048 -2.5521 -1.74936 -0.54277 -2.03116 -2.56098 -0.833289 -1.52434 -3.23414 -1.03216 -0.81208 -3.80855 -1.24354 -0.0212757 -4.31178 -1.38256 0.652192 -0.775544 0.182982 -3.60397 -1.19848 -0.720064 -3.52892 -1.59984 -1.63005 -3.42483 -2.13282 -2.46796 -3.30719 -2.56908 -3.35256 -3.1424 -2.93342 -4.18538 -3.02398 -1.19244 0.253561 -3.9117 -1.83639 0.079441 -3.16671 -2.51461 -0.0868699 -2.45092 -3.19339 -0.24387 -1.73356 -3.85212 -0.33666 -0.986929 -4.49127 -0.508301 -0.237245 -5.09598 -0.698767 0.536091 -5.36358 -0.79228 0.8713 -1.60503 0.257814 -4.23862 -1.58623 -0.700357 -3.95304 -1.62293 -1.64912 -3.63919 -1.77154 -2.58009 -3.30571 -1.91781 -3.51055 -2.96979 -1.97657 -4.4607 -2.66356 -2.01596 -5.41611 -2.37091 -2.02464 -5.61741 -2.30458 -1.9863 0.261598 -4.53985 -2.67436 0.514381 -3.85965 -3.34796 0.735405 -3.15437 -4.0744 1.003 -2.52138 -4.78949 1.36628 -1.92417 -5.53508 1.69901 -1.34676 -6.06999 2.06033 -0.912182 -2.3565 0.300197 -4.82639 -3.02831 0.531654 -4.12275 -3.64202 0.768181 -3.36948 -4.26601 0.971664 -2.61501 -4.89833 1.27293 -1.90128 -5.54371 1.53859 -1.18511 -6.18308 1.79978 -0.464015 -2.79268 0.343647 -5.14394 -2.2486 0.656413 -5.92249 -1.75747 0.994241 -6.72541 -1.15515 1.37565 -7.42664 -0.546083 1.82226 -8.08206 0.156323 2.19078 -8.69101 0.582969 2.37387 -9.05157 -3.19513 0.396279 -5.41972 -3.36337 1.36397 -5.23192 -3.49969 2.33725 -5.04712 -3.72606 3.29422 -4.86556 -3.94301 4.22866 -4.58316 -4.00666 5.19165 -4.32125 -4.01087 5.29868 -4.29669 -3.66389 0.467058 -5.7427 -3.73934 0.110786 -6.67403 -3.80525 -0.255623 -7.60215 -3.67207 -0.630475 -8.51962 -3.50089 -1.00656 -9.43025 -3.25167 -1.3471 -10.2607 -4.13395 0.57229 -6.0976 -4.12435 1.49786 -5.71914 -4.23193 2.41535 -5.33622 -4.38598 3.33603 -4.97757 -4.51039 4.29076 -4.70738 -4.6178 5.22341 -4.36295 -4.61671 5.54229 -4.24443 -4.45857 0.638233 -6.34916 -5.17065 0.074626 -5.93048 -5.87606 -0.539628 -5.57681 -6.61344 -1.13501 -5.25776 -7.33355 -1.76388 -4.96455 -8.05322 -2.40154 -4.68986 -8.224 -2.55406 -4.62244 -4.85184 0.708382 -6.65578 -4.95042 1.69091 -6.49792 -5.12647 2.67325 -6.56128 -5.38253 3.63989 -6.56726 -5.64497 4.60415 -6.53066 -5.8391 5.58306 -6.46711 -5.974 6.23699 -6.40787 -5.28135 0.784749 -6.99232 -5.7739 0.983864 -6.14512 -6.2625 1.23647 -5.30997 -6.79886 1.5388 -4.52199 -7.42633 1.8149 -3.79395 -8.04156 2.06974 -3.04792 -8.24648 2.15321 -2.79845 -5.71816 0.904278 -7.31963 -5.89368 1.78777 -6.88531 -6.12914 2.67474 -6.48801 -6.42916 3.53378 -6.07324 -6.68053 4.38345 -5.6097 -6.86154 5.26458 -5.17283 -6.97385 5.77885 -4.88294 -6.05135 0.98856 -7.54527 -5.63866 1.89169 -7.42676 -5.14359 2.75927 -7.47383 -4.59928 3.59722 -7.51337 -4.07849 4.45075 -7.52919 -3.63305 5.34175 -7.61701 -3.41444 5.81277 -7.63211 -6.37676 1.05574 -7.74451 -5.79485 1.66886 -8.27879 -5.21461 2.28347 -8.81319 -4.66953 2.94109 -9.3332 -4.09098 3.59104 -9.82601 -3.65844 4.08374 -10.1992 -6.77657 1.13843 -7.99726 -6.97261 1.79979 -7.27326 -7.27261 2.41854 -6.54721 -7.61173 3.03033 -5.83257 -7.90576 3.66204 -5.11529 -8.16707 4.21563 -4.32456 -8.30689 4.47853 -3.93877 -7.22713 1.21865 -8.27276 -6.7987 1.33721 -9.16852 -6.40138 1.48742 -10.0738 -5.98366 1.69278 -10.9589 -5.56766 1.77011 -11.865 -5.14832 1.86982 -12.7421 -7.618 1.28173 -8.48261 -8.24075 0.877866 -7.81248 -8.86479 0.467515 -7.14751 -9.50531 0.0356353 -6.51252 -10.0357 -0.34267 -5.75382 -10.374 -0.583632 -5.32948 -8.09403 1.38093 -8.77904 -8.61805 1.68524 -7.98355 -9.15461 1.95311 -7.18333 -9.69534 2.2446 -6.39425 -10.291 2.44496 -5.6164 -10.8872 2.65405 -4.84127 -10.9917 2.68482 -4.70766 -8.49603 1.44685 -9.07498 -7.92613 1.48812 -9.89566 -7.37102 1.50823 -10.7272 -6.76337 1.50047 -11.5214 -6.16477 1.53376 -12.3217 -5.56728 1.52247 -13.1235 -5.40932 1.51321 -13.3386 -8.91603 1.48146 -9.35663 -8.814 0.940024 -10.1912 -8.70317 0.431934 -11.0453 -8.56996 -0.0646359 -11.903 -8.38674 -0.618084 -12.7155 -8.29357 -0.89653 -13.1788 -9.37136 1.48874 -9.60842 -9.45546 2.40846 -9.99187 -9.52557 3.33168 -10.3697 -9.58427 4.26548 -10.7226 -9.50514 5.1829 -11.1126 -9.4279 5.80078 -11.4118 -9.74312 1.5107 -9.79874 -10.0849 2.44308 -9.91643 -10.5227 3.339 -9.99159 -10.9389 4.23578 -10.1418 -11.2513 5.16449 -10.3416 -11.5025 5.76877 -10.4661 -10.1888 1.59802 -10.1002 -10.8503 1.13126 -9.51321 -11.5214 0.652833 -8.94687 -12.1488 0.1567 -8.3467 -12.8046 -0.3048 -7.7493 -13.3613 -0.741497 -7.04803 -10.5793 1.67673 -10.3536 -10.6105 0.690979 -10.5189 -10.5042 -0.266741 -10.7862 -10.3917 -1.22564 -11.0467 -10.2448 -2.19292 -11.2536 -10.1618 -2.76029 -11.3805 -10.9929 1.7665 -10.6159 -10.7136 1.11734 -11.3234 -10.5066 0.477193 -12.0633 -10.2695 -0.156697 -12.7994 -10.0529 -0.772869 -13.5567 -9.91193 -1.19212 -14.0034 -11.3527 1.84597 -10.8323 -10.9538 2.4048 -11.5593 -10.5866 3.00428 -12.2705 -10.2119 3.59633 -12.984 -9.82706 4.17957 -13.6994 -9.54887 4.64558 -14.2847 -11.811 1.94759 -11.1096 -12.1006 1.12875 -11.6052 -12.406 0.31123 -12.0935 -12.608 -0.49621 -12.6478 -12.7723 -1.29207 -13.2306 -12.8426 -1.59029 -13.448 -12.1967 2.05562 -11.3656 -12.4072 1.17134 -10.9487 -12.52 0.263031 -10.5459 -12.6425 -0.637419 -10.1286 -12.7546 -1.55977 -9.75883 -12.7783 -1.86801 -9.64473 -12.5623 2.13559 -11.6054 -12.4875 1.47563 -12.353 -12.4574 0.844115 -13.1278 -12.4217 0.212534 -13.9023 -12.4005 -0.310674 -14.6255 -12.9565 2.29859 -11.935 -13.2786 3.1528 -11.5267 -13.5346 4.0044 -11.0694 -13.8184 4.8311 -10.5835 -13.995 5.44484 -10.2102 -13.3269 2.46198 -12.2306 -13.9105 2.48226 -11.4188 -14.5359 2.55637 -10.6421 -15.2904 2.52084 -9.98669 -15.7312 2.51449 -9.65996 -13.6837 2.6129 -12.5154 -12.8674 3.00992 -12.9349 -12.0572 3.38378 -13.3864 -11.2721 3.828 -13.818 -10.4477 4.20679 -14.2386 -9.99207 4.41651 -14.4688 -14.06 2.76918 -12.8268 -13.4603 2.70741 -13.6246 -12.8752 2.68704 -14.4353 -12.2834 2.67624 -15.2413 -11.7509 2.70387 -16.0873 -11.6181 2.72382 -16.3152 -14.4577 2.8739 -13.1678 -15.2854 2.37258 -12.9155 -16.0759 1.82155 -12.6483 -16.7505 1.17653 -12.4602 -14.784 2.96035 -13.4598 -14.3809 2.46314 -14.2281 -13.9442 2.27348 -15.1074 -13.5681 2.06218 -16.0096 -13.3397 1.89156 -16.4683 -15.0705 3.04025 -13.7177 -14.4402 2.75962 -14.4416 -13.6705 2.57423 -15.0525 -12.9075 2.36822 -15.6652 -12.6991 2.31225 -15.8357 -15.4385 3.14021 -14.0802 -15.0023 3.86603 -14.6121 -14.575 4.67781 -15.0101 -14.0509 5.43205 -15.4057 -13.5995 6.19782 -15.7899 -15.7586 3.24668 -14.3917 -15.883 4.23813 -14.3524 -16.0089 5.22973 -14.3228 -16.1601 6.21822 -14.3187 -16.2526 6.79943 -14.2752 -16.1309 3.29149 -14.7211 -16.3769 4.24333 -14.9041 -16.6731 5.16859 -15.141 -16.9716 6.0918 -15.3831 -17.3328 6.98155 -15.5386 -16.5252 3.35524 -15.1367 -16.2609 2.42625 -15.3958 -15.9208 1.52099 -15.6503 -15.5895 0.698478 -16.1127 -15.5037 0.482957 -16.2336 -16.9041 3.41926 -15.5544 -17.206 4.34079 -15.3101 -17.5088 5.25891 -15.0545 -17.7927 6.18162 -14.7937 -18.1053 7.09677 -14.5392 -18.113 7.11806 -14.5333 -17.2358 3.48118 -15.9372 -17.7693 2.91488 -15.3089 -18.3359 2.30608 -14.7536 -18.8872 1.77863 -14.1072 -19.2552 1.36275 -13.7001 -17.573 3.54064 -16.306 -17.1003 4.31104 -16.7338 -16.659 5.1029 -17.1559 -16.2075 5.8882 -17.5796 -16.0075 6.16917 -17.7119 -17.9006 3.61989 -16.6448 -17.5261 4.50127 -16.9328 -17.1543 5.39528 -17.1828 -16.7876 6.22759 -17.3525 -18.2488 3.69133 -17.0104 -18.1455 4.66106 -17.2316 -18.0405 5.63164 -17.4483 -17.8975 6.59055 -17.6933 -17.8643 6.78615 -17.7334 -18.5677 3.7529 -17.401 -19.2631 3.0481 -17.2609 -20.0047 2.38684 -17.1477 -20.6436 1.81374 -17.0495 -18.9627 3.80752 -17.8237 -19.26 2.89879 -17.5308 -19.5196 2.0001 -17.1773 -19.8465 1.32919 -16.8233 -19.2521 3.82851 -18.1404 -19.8082 3.13827 -17.6775 -20.3914 2.47023 -17.2153 -20.6359 2.20498 -17.0183 -19.5831 3.85394 -18.5034 -20.3489 4.15319 -17.9342 -21.1496 4.45571 -17.417 -21.7493 4.64458 -17.0235 -19.8712 3.85665 -18.8196 -19.5194 3.24747 -19.5303 -19.0937 2.56922 -20.1293 -18.6388 1.93817 -20.7577 -18.6119 1.90295 -20.794 -20.1729 3.85981 -19.1563 -19.3817 3.4634 -19.622 -18.5309 3.15578 -20.0479 -18.1363 3.0131 -20.2341 -20.5497 3.88445 -19.5788 -21.0293 4.60789 -19.0822 -21.5444 5.31514 -18.598 -21.7143 5.5316 -18.4506 -20.82 3.88327 -19.9748 -21.2961 4.74298 -19.79 -21.7804 5.59644 -19.5974 -21.9513 5.89415 -19.5281 -21.1316 3.89795 -20.4413 -20.4937 4.60375 -20.7494 -19.8563 5.30977 -21.058 -19.6227 5.59529 -21.2039 -21.3952 3.89642 -20.8428 -21.7526 2.96979 -20.7259 -22.0887 2.03649 -20.5995 -22.1942 1.76884 -20.5908 -21.6282 3.89349 -21.2017 -22.3394 4.54519 -20.9381 -23.0483 5.20017 -20.6765 -23.0763 5.226 -20.6661 -21.8349 3.89037 -21.589 -21.9761 4.86958 -21.7347 -22.1683 5.84714 -21.821 -22.1915 5.95541 -21.8306 -22.0322 3.88856 -21.9746 -22.8928 4.39356 -22.0405 -23.5731 4.64997 -22.0582 -22.2532 3.86063 -22.4774 -21.877 4.78683 -22.5015 -21.6382 5.38223 -22.5644 -22.4353 3.82768 -22.97 -21.4572 4.03011 -23.0175 -20.6882 4.21879 -23.0397 -22.5964 3.83718 -23.4638 -23.1887 4.57195 -23.1332 -23.4625 4.89794 -22.9859 -22.6781 3.85908 -23.8346 -23.6117 3.53885 -23.6738 -24.123 3.35331 -23.5637 -22.7682 3.87676 -24.2697 -23.5293 4.45866 -24.5563 -23.8295 4.6822 -24.654 -22.8487 3.85301 -24.7413 -23.6897 3.54736 -24.8959 -22.902 3.81164 -25.2239 -23.1132 2.84488 -25.2962 -22.9557 3.75223 -25.688 -22.7138 4.5331 -25.7737 -22.9862 3.64617 -26.2455 -22.7294 3.09107 -26.0801 -22.9748 3.57584 -26.782 -22.6435 4.11912 -26.93 -22.9842 3.55034 -27.2008 -22.748 3.1265 -27.1614 -22.9913 3.53426 -27.7063 -23.2547 3.43863 -27.7331 -22.9985 3.5176 -28.2334 -22.7862 3.56199 -28.2998 -23.0247 3.49768 -28.7079 -23.0738 3.52208 -28.7101 0 0 -3 0.364225 -0.139555 -3.26836 0.74527 -0.263108 -3.54864 1.13645 -0.390036 -3.8245 1.52199 -0.512855 -4.09675 1.88117 -0.629344 -4.35224 2.24008 -0.753991 -4.63115 2.60148 -0.912468 -4.98537 2.91576 -0.998647 -5.33344 3.20461 -1.09683 -5.66977 3.50544 -1.20758 -6.03681 3.78403 -1.29563 -6.36566 4.10979 -1.43735 -6.79531 4.42905 -1.52787 -7.22553 4.73878 -1.61165 -7.62149 5.04777 -1.71854 -8.10756 5.28945 -1.74823 -8.54639 5.4874 -1.76591 -8.93515 5.688 -1.81689 -9.45173 5.8632 -1.86308 -9.90414 6.03175 -1.96525 -10.3884 6.19503 -1.97305 -10.8664 6.31089 -1.95909 -11.3565 6.39587 -1.90051 -11.8407 6.44562 -1.83967 -12.2348 6.51566 -1.75388 -12.6599 6.5486 -1.66224 -13.1376 6.62371 -1.59657 -13.6999 6.68996 -1.54213 -14.182 6.71529 -1.50965 -14.6844 6.70767 -1.50828 -15.167 6.69938 -1.50789 -15.6624 6.6881 -1.50921 -16.2212 6.65503 -1.49326 -16.6552 6.64463 -1.50905 -17.1034 6.62697 -1.52907 -17.5852 6.60914 -1.55357 -18.1288 6.59193 -1.57243 -18.6102 6.55886 -1.60339 -19.0986 6.54478 -1.6448 -19.5555 6.51912 -1.62963 -20.0578 6.53105 -1.60382 -20.63 6.5574 -1.66526 -21.1327 6.53263 -1.71796 -21.7301 6.51521 -1.75818 -22.2712 6.50054 -1.7941 -22.7386 6.47848 -1.84856 -23.3099 6.49108 -1.87871 -23.8008 6.50277 -1.91106 -24.3105 6.51619 -1.94279 -24.8122 6.53534 -1.9947 -25.3744 6.53525 -2.01281 -25.8409 6.54926 -1.99569 -26.3348 6.55907 -1.97864 -26.8222 6.55711 -1.95952 -27.3777 6.59566 -1.94039 -27.8696 6.64953 -1.93774 -28.4388 6.69255 -1.94873 -28.9793 6.73499 -1.98351 -29.5416 6.76093 -2.01576 -30.0273 6.78693 -2.04904 -30.5298 6.76856 -2.06384 -31.0353 6.76101 -2.06499 -31.5543 6.74997 -2.094 -32.056 6.73668 -2.13424 -32.6694 6.73408 -2.17105 -33.1916 6.72763 -2.22457 -33.7844 6.73842 -2.27195 -34.252 6.72008 -2.3274 -34.7289 6.66875 -2.38624 -35.2988 6.58876 -2.38517 -35.7679 6.49428 -2.37614 -36.3121 6.40886 -2.36762 -36.7924 6.31716 -2.36581 -37.3066 6.27557 -2.35188 -37.7842 6.29331 -2.3438 -38.2989 6.30218 -2.35586 -38.8314 6.31538 -2.33606 -39.3003 6.33436 -2.34226 -39.7717 6.32785 -2.33728 -40.319 6.33183 -2.3384 -40.7781 6.35677 -2.34025 -41.3263 6.37994 -2.34984 -41.8437 6.37819 -2.36094 -42.3642 6.37425 -2.40117 -42.8888 6.3649 -2.4357 -43.3492 6.35777 -2.45763 -43.8149 6.35419 -2.47649 -44.3783 6.34751 -2.49871 -44.8497 6.3407 -2.52183 -45.344 6.32593 -2.5372 -45.8335 6.31104 -2.55353 -46.4065 6.31308 -2.58663 -46.8815 6.33214 -2.62781 -47.3888 6.31561 -2.61185 -47.8772 6.29841 -2.59125 -48.3698 6.2894 -2.55802 -48.9433 6.29129 -2.55247 -49.0416 0.364225 -0.139555 -3.26836 0.112878 0.134197 -4.19674 -0.200292 0.439165 -5.09614 -0.503941 0.708298 -5.93206 0.74527 -0.263108 -3.54864 0.528462 0.19851 -4.40881 0.285578 0.755538 -5.203 0.0646821 1.30804 -6.00671 -0.0913071 1.779 -6.52914 1.13645 -0.390036 -3.8245 0.700025 -0.324122 -4.72182 0.259996 -0.260517 -5.61755 -0.165136 -0.207949 -6.52116 -0.355558 -0.207161 -6.9369 1.52199 -0.512855 -4.09675 1.53281 0.272376 -4.71586 1.61676 1.09701 -5.27526 1.73911 1.94759 -5.78667 1.79746 2.34122 -6.02659 1.88117 -0.629344 -4.35224 2.50513 -0.631319 -3.57079 3.05581 -0.655416 -2.73642 3.6994 -0.701603 -1.97245 4.12165 -0.722436 -1.59609 2.24008 -0.753991 -4.63115 3.02788 -0.241067 -4.29014 3.79708 0.278571 -3.91825 4.56677 0.784071 -3.52833 5.04657 1.09149 -3.27294 2.60148 -0.912468 -4.98537 1.89452 -1.10014 -5.66726 1.17997 -1.2847 -6.34207 0.494656 -1.50643 -7.03573 0.436085 -1.52592 -7.0923 2.91576 -0.998647 -5.33344 2.41821 -1.74085 -5.78242 1.87745 -2.45916 -6.22015 1.37562 -3.23963 -6.59301 0.957736 -3.91576 -6.90551 3.20461 -1.09683 -5.66977 3.28523 -2.07315 -5.46901 3.38676 -3.05087 -5.28529 3.48557 -4.02623 -5.08802 3.54627 -4.31986 -5.03251 3.50544 -1.20758 -6.03681 4.19764 -0.530333 -6.28619 4.88145 0.147377 -6.55659 5.62523 0.695694 -6.93889 5.68501 0.742657 -6.96738 3.78403 -1.29563 -6.36566 4.13046 -2.18086 -6.05526 4.4962 -3.06763 -5.77262 4.84549 -3.9483 -5.45261 4.8996 -4.0999 -5.39855 4.10979 -1.43735 -6.79531 4.34083 -0.481232 -6.97545 4.57117 0.474906 -7.15641 4.69523 1.00808 -7.25925 4.42905 -1.52787 -7.22553 4.13965 -2.4755 -7.36064 3.87274 -3.43026 -7.49178 3.67958 -4.05645 -7.62257 4.73878 -1.61165 -7.62149 4.34897 -1.05263 -8.3533 3.94855 -0.404206 -9.00076 3.65157 0.161433 -9.77009 3.61387 0.244378 -9.86504 5.04777 -1.71854 -8.10756 4.94041 -0.937117 -8.72226 4.85773 -0.137608 -9.3172 4.80441 0.35742 -9.69428 5.28945 -1.74823 -8.54639 4.39106 -1.8355 -8.97684 3.49267 -1.92276 -9.40729 2.73546 -2.00193 -9.77275 5.4874 -1.76591 -8.93515 5.64181 -2.74664 -8.81547 5.75723 -3.73962 -8.78945 5.78548 -4.01163 -8.77333 5.688 -1.81689 -9.45173 5.61179 -2.7985 -9.27669 5.5845 -3.77902 -9.08221 5.57182 -4.40498 -8.946 5.8632 -1.86308 -9.90414 6.29686 -0.978715 -10.0769 6.73097 -0.0818728 -10.1619 6.79571 0.0516911 -10.175 6.03175 -1.96525 -10.3884 6.36323 -1.22381 -10.9719 6.65337 -0.509683 -11.6089 6.71347 -0.349485 -11.7565 6.19503 -1.97305 -10.8664 5.47922 -2.6318 -11.098 4.78145 -3.30743 -11.336 4.62867 -3.44634 -11.3925 6.31089 -1.95909 -11.3565 7.25269 -1.94785 -11.0205 8.18734 -1.90678 -10.6673 8.50215 -1.90939 -10.5515 6.39587 -1.90051 -11.8407 5.92956 -1.02394 -11.9597 5.47516 -0.155061 -12.0395 6.44562 -1.83967 -12.2348 7.33566 -1.40584 -12.0947 7.85679 -1.14444 -12.0203 6.51566 -1.75388 -12.6599 7.48352 -1.99857 -12.718 8.28357 -2.22079 -12.7719 6.5486 -1.66224 -13.1376 7.08453 -2.50648 -13.143 7.38923 -3.03591 -13.0749 6.62371 -1.59657 -13.6999 7.19593 -2.36929 -13.9747 7.51903 -2.76865 -14.1031 6.68996 -1.54213 -14.182 7.58182 -1.96811 -14.0299 8.13663 -2.2617 -13.9309 6.71529 -1.50965 -14.6844 5.72496 -1.64472 -14.6527 5.14545 -1.6664 -14.6876 6.70767 -1.50828 -15.167 7.6891 -1.43712 -15.3451 7.93061 -1.41971 -15.3866 6.69938 -1.50789 -15.6624 5.70874 -1.46317 -15.7914 5.5127 -1.45168 -15.8159 6.6881 -1.50921 -16.2212 7.63897 -1.22197 -16.1057 7.75415 -1.19119 -16.0842 6.65503 -1.49326 -16.6552 7.39891 -1.00239 -16.8021 6.64463 -1.50905 -17.1034 7.58622 -1.19548 -17.2262 7.68091 -1.16227 -17.2379 6.62697 -1.52907 -17.5852 5.81755 -1.653 -17.5335 6.60914 -1.55357 -18.1288 7.10134 -2.04133 -18.2526 6.59193 -1.57243 -18.6102 6.03801 -2.04655 -18.5247 6.55886 -1.60339 -19.0986 5.99514 -1.72968 -18.9339 6.54478 -1.6448 -19.5555 6.58221 -1.1677 -19.8587 6.51912 -1.62963 -20.0578 6.47617 -1.26436 -20.1173 6.53105 -1.60382 -20.63 6.73436 -1.49117 -20.6557 6.5574 -1.66526 -21.1327 6.66996 -1.64633 -21.1192 0 0 -3 0.440243 0.0968609 -3.31939 0.862245 0.216237 -3.62582 1.17973 0.295386 -3.86251 1.59168 0.376333 -4.15911 1.99866 0.467866 -4.45309 2.38877 0.574599 -4.74053 2.75526 0.659837 -5.04377 3.11267 0.742991 -5.35098 3.48498 0.818076 -5.7013 3.88965 0.878983 -5.962 4.34049 0.984521 -6.24432 4.74187 1.08448 -6.51603 5.1685 1.19086 -6.82939 5.58001 1.27687 -7.15765 5.943 1.35038 -7.43518 6.38273 1.45427 -7.76546 6.74232 1.54316 -8.06779 7.11758 1.62957 -8.38816 7.48944 1.69972 -8.74119 7.81414 1.80631 -9.05496 8.17521 1.93065 -9.465 8.49679 2.0352 -9.84186 8.79106 2.13248 -10.1664 9.1653 2.26189 -10.5827 9.5453 2.3587 -11.0128 9.80618 2.43075 -11.306 10.0987 2.51378 -11.6328 10.3906 2.60154 -11.9621 10.6751 2.68796 -12.3098 10.9847 2.78266 -12.6893 11.2871 2.83745 -13.1093 11.5661 2.88685 -13.4957 11.8222 2.88725 -13.9061 12.0841 2.88226 -14.2598 12.4183 2.86201 -14.6732 12.7478 2.85014 -15.0716 13.0541 2.83849 -15.4416 13.3424 2.82686 -15.8122 13.6765 2.81281 -16.244 13.9651 2.76264 -16.627 14.3215 2.73387 -17.0717 14.6225 2.71201 -17.512 14.8528 2.72933 -17.8541 15.1479 2.73401 -18.2716 15.433 2.72123 -18.7854 15.7203 2.64331 -19.273 15.8919 2.56606 -19.6177 16.0652 2.43377 -19.9697 16.2751 2.2733 -20.408 16.5083 2.08163 -20.9467 16.7585 1.92994 -21.4713 16.9666 1.82371 -21.8883 17.0558 1.77691 -22.0683 0.440243 0.0968609 -3.31939 0.652648 0.103953 -3.10696 0.862245 0.216237 -3.62582 0.967922 0.193192 -3.497 1.17973 0.295386 -3.86251 1.16515 0.35783 -3.89678 
</DataArray>
</Points>
<Lines>
<DataArray type="Int32" Name="connectivity" NumberOfComponents="1" format="ascii" >