<?xml version="1.0"?><VTKFile type="PolyData" version="0.1" byte_order="LittleEndian">
<PolyData>
<Piece NumberOfLines="42" NumberOfPoints="296">
<PointData Scalars=" PointData">
<DataArray type="Float32" Name="time" NumberOfComponents="1" format="ascii" >
0 0.600077 0.792047 0.99489 1.1866 1.40803 1.6262 1.83047 2.03819 2.2498 2.4729 2.6786 2.87985 3.1004 3.31296 3.51505 3.73031 3.93494 4.1672 4.39002 4.61531 4.8682 5.11502 5.36511 5.58748 5.84277 6.09114 6.32314 6.55794 6.78681 7.05325 7.31986 7.57253 7.81146 8.07824 8.34906 8.60728 8.88522 9.17516 9.43707 9.68707 9.93879 10 0.600077 2.19107 3.85736 4.56713 5.41275 6.15638 7.09662 7.84022 8.80149 9.81376 10 0.792047 2.38508 4.05179 4.96562 5.75774 6.71368 7.63637 8.43017 9.21755 10 0.99489 2.52956 4.13573 4.57899 5.39392 6.21708 7.10827 8.08435 9.04992 10 1.1866 2.83915 4.57166 5.22085 6.09411 6.89126 7.81854 8.77774 9.61432 10 1.40803 3.15871 4.99255 5.04762 5.98328 6.81931 7.83124 8.7796 9.81952 10 1.6262 3.32894 5.1139 5.34268 6.1678 6.94226 7.83338 8.66607 9.41224 10 1.83047 3.52989 5.31021 6.15851 7.05585 7.88431 8.64404 9.5363 10 2.03819 3.60826 5.25409 5.62404 6.42253 7.3792 8.24125 9.19471 10 2.2498 3.89205 5.61056 5.84124 6.65987 7.45 8.16133 8.96405 10 2.4729 4.09229 5.78771 6.52945 7.33132 8.11309 8.99391 9.87565 10 2.6786 4.14005 5.67131 6.06069 6.78338 7.50401 8.36154 9.19156 9.9718 10 2.87985 4.37289 5.9384 6.29928 7.01804 7.79807 8.57449 9.41802 10 3.1004 4.63142 6.23569 6.72171 7.7031 8.58278 9.44181 10 3.31296 4.8458 6.45071 6.93937 7.74016 8.59302 9.40704 10 3.51505 5.05583 6.66902 7.51785 8.39435 9.16057 9.9798 10 3.73031 5.23246 6.8045 7.36226 8.21875 8.99003 9.68938 10 3.93494 5.44865 7.0359 7.0724 7.73638 8.46962 9.31441 10 4.1672 5.79716 7.50348 7.88238 8.75133 9.46524 10 4.39002 5.90377 7.49113 7.98272 8.78735 9.591 10 4.61531 6.25387 7.97001 8.70267 9.36944 10 4.8682 6.45628 8.12074 8.4112 9.20479 10 5.11502 6.77021 8.50365 9.42315 10 5.36511 6.9361 8.57881 9.00407 9.78719 10 5.58748 7.13841 8.76525 9.26893 9.98253 10 5.84277 7.50838 9.25741 9.42706 10 6.09114 7.56075 9.10171 9.2109 9.96436 10 6.32314 7.7977 9.34452 9.82468 10 6.55794 8.1044 9.72584 10 6.78681 8.25467 9.79152 10 7.05325 8.67892 10 7.31986 8.90419 10 7.57253 9.10066 10 7.81146 9.47842 10 8.07824 9.61964 10 8.34906 9.90391 10 8.60728 10 8.88522 10 9.17516 10 9.43707 10 9.68707 10 9.93879 10 
</DataArray>

</PointData>
<CellData Scalars=" CellData">
<DataArray type="Float32" Name="radius" NumberOfComponents="1" format="ascii" >
0.101845 0.048552 0.0546828 0.0515751 0.0369336 0.0532678 0.0461663 0.0569531 0.050304 0.0509722 0.0464286 0.0454205 0.0540131 0.0553343 0.0512713 0.0575158 0.0545462 0.052304 0.0588516 0.0578699 0.0461398 0.0564867 0.0412877 0.0487257 0.0508509 0.0476603 0.0477734 0.0451107 0.0478696 0.0418639 0.041974 0.0526559 0.0469767 0.0460652 0.052817 0.0480349 0.0534652 0.0443995 0.0448038 0.0487104 0.0477715 0.0439337 
</DataArray>
<DataArray type="Float32" Name="subType" NumberOfComponents="1" format="ascii" >
1 2 2 2 2 2 2 2 2 2 2 2 2 2 2 2 2 2 2 2 2 2 2 2 2 2 2 2 2 2 2 2 2 2 2 2 2 2 2 2 2 2 
</DataArray>
<DataArray type="Float32" Name="creationTime" NumberOfComponents="1" format="ascii" >
0 0.600077 0.792047 0.99489 1.1866 1.40803 1.6262 1.83047 2.03819 2.2498 2.4729 2.6786 2.87985 3.1004 3.31296 3.51505 3.73031 3.93494 4.1672 4.39002 4.61531 4.8682 5.11502 5.36511 5.58748 5.84277 6.09114 6.32314 6.55794 6.78681 7.05325 7.31986 7.57253 7.81146 8.07824 8.34906 8.60728 8.88522 9.17516 9.43707 9.68707 9.93879 
</DataArray>

</CellData>
<Points>
<DataArray type="Float32" Name="Coordinates" NumberOfComponents="3" format="ascii" >
0 0 -3 0.00530778 0.00109532 -3.95549 0.0136314 0.00495492 -4.2569 0.0158626 0.0177551 -4.57311 -0.00170164 0.00623236 -4.86946 -0.0778017 -0.033924 -5.19916 -0.170325 -0.109553 -5.51018 -0.251388 -0.186159 -5.7991 -0.346961 -0.280256 -6.08162 -0.451848 -0.411607 -6.34957 -0.56199 -0.525945 -6.64 -0.62981 -0.590205 -6.92819 -0.708164 -0.640011 -7.20751 -0.693567 -0.765267 -7.50186 -0.688751 -0.879906 -7.78593 -0.739531 -1.00671 -8.04084 -0.788277 -1.12252 -8.31969 -0.862406 -1.2318 -8.57639 -0.915705 -1.34642 -8.87601 -0.959696 -1.42336 -9.17261 -1.00456 -1.50835 -9.46797 -1.06598 -1.58219 -9.80016 -1.11286 -1.6732 -10.1187 -1.23537 -1.80838 -10.4011 -1.33571 -1.93475 -10.6499 -1.45279 -2.04264 -10.9476 -1.53288 -2.15646 -11.242 -1.64909 -2.26009 -11.5004 -1.77528 -2.31192 -11.7708 -1.8702 -2.36436 -12.043 -1.97584 -2.42738 -12.3579 -2.08329 -2.49557 -12.6681 -2.19496 -2.54065 -12.959 -2.35204 -2.54955 -13.2089 -2.57025 -2.53847 -13.452 -2.76372 -2.54845 -13.7176 -2.92885 -2.53193 -13.9802 -3.09653 -2.44251 -14.2516 -3.20001 -2.39945 -14.575 -3.2678 -2.34914 -14.8694 -3.37359 -2.30833 -15.1361 -3.43672 -2.23529 -15.4087 -3.4508 -2.22491 -15.4765 0.00530778 0.00109532 -3.95549 0.592134 -0.0593864 -4.76294 1.32732 -0.0829838 -5.44039 1.65615 -0.103694 -5.68741 2.04458 -0.133495 -5.96765 2.37905 -0.0784044 -6.20287 2.76712 -0.208943 -6.50587 3.08248 -0.250587 -6.73719 3.47587 -0.320948 -7.03146 3.87381 -0.410408 -7.33459 3.94513 -0.427791 -7.38991 0.0136314 0.00495492 -4.2569 -0.576566 0.604632 -4.79732 -1.12224 1.1339 -5.44703 -1.47499 1.37555 -5.75844 -1.77705 1.59168 -6.00855 -2.14076 1.88392 -6.25456 -2.47799 2.15606 -6.49588 -2.72663 2.46443 -6.62515 -2.96907 2.76238 -6.75136 -3.22135 3.02495 -6.89962 0.0158626 0.0177551 -4.57311 0.873992 0.0360655 -5.08622 1.67218 0.151211 -5.67753 1.91783 0.171477 -5.78241 2.36344 0.200032 -5.96808 2.61586 0.097242 -6.35955 2.90777 0.000685151 -6.75859 3.17083 -0.174636 -7.19268 3.42826 -0.336757 -7.61004 3.68732 -0.638701 -7.90332 -0.00170164 0.00623236 -4.86946 0.604244 0.783226 -5.04008 1.13303 1.45427 -5.55977 1.32213 1.70184 -5.74498 1.54811 2.00849 -6.03251 1.73265 2.25029 -6.33022 1.85931 2.5336 -6.70076 1.97303 2.78805 -7.10008 2.09171 2.99282 -7.44 2.11405 3.08276 -7.60325 -0.0778017 -0.033924 -5.19916 -0.939905 -0.104038 -5.70102 -1.74699 -0.0785056 -6.2909 -1.76967 -0.077151 -6.30939 -2.14222 -0.0238663 -6.62555 -2.4422 0.0741066 -6.91648 -2.80681 0.180698 -7.25261 -3.0643 0.303017 -7.61803 -3.42206 0.528198 -7.87612 -3.48403 0.565458 -7.92006 -0.170325 -0.109553 -5.51018 0.291815 -0.604276 -6.24616 0.793871 -1.02498 -7.00177 0.866216 -1.07396 -7.09077 1.08827 -1.24743 -7.43318 1.32351 -1.3253 -7.75644 1.5073 -1.42356 -8.16453 1.69272 -1.49191 -8.53322 1.88898 -1.63362 -8.80896 2.03142 -1.75439 -9.02274 -0.251388 -0.186159 -5.7991 -0.621543 -1.1148 -5.82374 -1.06588 -2.00897 -5.76873 -1.33119 -2.38146 -5.81842 -1.59745 -2.77218 -5.86769 -1.80847 -3.13846 -5.94015 -2.0043 -3.46166 -6.01396 -2.30434 -3.78487 -6.0482 -2.4592 -3.94631 -6.07852 -0.346961 -0.280256 -6.08162 -1.21671 -0.50067 -6.52315 -2.11721 -0.928197 -6.44364 -2.32166 -1.00444 -6.44585 -2.77941 -1.07318 -6.45637 -3.31514 -1.13196 -6.41366 -3.76428 -1.18043 -6.26899 -4.26512 -1.23224 -6.18262 -4.67918 -1.2819 -6.12874 -0.451848 -0.411607 -6.34957 -1.43775 -0.359526 -6.50857 -2.43019 -0.464846 -6.57155 -2.55974 -0.473413 -6.58697 -3.00373 -0.489171 -6.69586 -3.42889 -0.483225 -6.77226 -3.80129 -0.461911 -6.85042 -4.20329 -0.392281 -6.95582 -4.71652 -0.328859 -7.07401 -0.56199 -0.525945 -6.64 -1.24991 0.125259 -6.96047 -1.82816 0.884956 -7.25795 -2.07958 1.21049 -7.35644 -2.38704 1.51906 -7.45926 -2.68288 1.80912 -7.56214 -3.01952 2.114 -7.68323 -3.36477 2.37232 -7.8411 -3.41293 2.40536 -7.86693 -0.62981 -0.590205 -6.92819 -0.200842 -1.25631 -7.53834 0.34469 -1.81303 -8.1648 0.52062 -1.95717 -8.26054 0.884555 -2.17369 -8.41312 1.24312 -2.38166 -8.55723 1.65048 -2.61348 -8.75706 1.97859 -2.87915 -8.98624 2.25688 -3.12456 -9.22341 2.2674 -3.13326 -9.23119 -0.708164 -0.640011 -7.20751 -0.380827 0.0113451 -7.89204 -0.112284 0.394641 -8.77576 -0.0622104 0.479214 -8.97674 0.0581869 0.717869 -9.32394 0.158631 0.929659 -9.7251 0.170966 1.03342 -10.1643 0.113361 1.15114 -10.6243 0.12616 1.15641 -10.9468 -0.693567 -0.765267 -7.50186 -1.33321 -1.51278 -7.68097 -2.1016 -2.09469 -7.94735 -2.34504 -2.24612 -8.01085 -2.82143 -2.56646 -8.09427 -3.23553 -2.84419 -8.17893 -3.66153 -2.9752 -8.36047 -3.93426 -3.05544 -8.47411 -0.688751 -0.879906 -7.78593 -1.57988 -0.985521 -8.22721 -2.45624 -0.915658 -8.70378 -2.70372 -0.860514 -8.85508 -3.10047 -0.7632 -9.09708 -3.53597 -0.626617 -9.285 -3.9398 -0.497001 -9.46246 -4.20056 -0.462765 -9.65857 -0.739531 -1.00671 -8.04084 -1.15013 -0.438166 -8.75369 -1.87187 0.249018 -8.83652 -2.24778 0.590074 -8.84307 -2.6077 0.952169 -8.81818 -2.89335 1.27844 -8.77036 -3.18834 1.62142 -8.71467 -3.19552 1.62975 -8.7132 -0.788277 -1.12252 -8.31969 -1.24783 -0.932555 -9.18729 -1.78067 -1.35349 -9.92138 -1.96291 -1.49772 -10.1747 -2.26274 -1.63374 -10.5732 -2.53964 -1.67749 -10.9309 -2.78203 -1.73344 -11.2482 -2.86972 -1.74094 -11.4011 -0.862406 -1.2318 -8.57639 -0.667887 -1.96539 -9.22755 -0.370831 -2.75162 -9.76939 -0.364387 -2.76893 -9.78211 -0.214572 -3.05272 -10.027 -0.0169859 -3.34373 -10.2852 0.204706 -3.72718 -10.4965 0.349995 -4.04899 -10.6598 -0.915705 -1.34642 -8.87601 -0.604997 -2.24357 -9.18998 -0.411853 -3.15992 -9.54069 -0.345303 -3.34069 -9.63791 -0.247316 -3.74007 -9.89776 -0.170931 -4.0647 -10.102 -0.0732961 -4.22419 -10.321 -0.959696 -1.42336 -9.17261 -1.84022 -1.11431 -9.53203 -2.70966 -0.86822 -9.96041 -2.96309 -0.779946 -10.0944 -3.36029 -0.616185 -10.3114 -3.75714 -0.46965 -10.514 -3.95487 -0.386972 -10.6087 -1.00456 -1.50835 -9.46797 -0.311451 -1.89534 -10.0761 0.303556 -2.00379 -10.8571 0.535033 -2.00968 -11.1988 0.698146 -2.02064 -11.5289 0.853329 -2.04155 -11.8332 -1.06598 -1.58219 -9.80016 -0.515017 -1.22686 -10.5553 -0.21209 -1.08474 -11.4976 -0.159949 -1.06688 -11.6581 -0.0473855 -1.06184 -12.1002 0.0638472 -1.05385 -12.5329 -1.11286 -1.6732 -10.1187 -0.391923 -2.24995 -10.5029 0.272302 -2.94397 -10.7807 0.558343 -3.34567 -10.9168 0.751426 -3.57413 -11.0137 -1.23537 -1.80838 -10.4011 -1.15898 -2.80529 -10.3824 -1.02832 -3.79212 -10.4777 -1.05267 -4.04029 -10.5107 -1.0773 -4.48938 -10.5826 -1.0754 -4.60937 -10.605 -1.33571 -1.93475 -10.6499 -2.30392 -1.86343 -10.8896 -3.21563 -1.81312 -11.2973 -3.49275 -1.74967 -11.3925 -3.89085 -1.68809 -11.5006 -3.90052 -1.68651 -11.5031 -1.45279 -2.04264 -10.9476 -1.30282 -1.27367 -11.569 -1.06138 -0.638166 -12.3024 -1.04146 -0.578292 -12.3726 -0.974816 -0.372294 -12.6018 -1.53288 -2.15646 -11.242 -2.36191 -2.66912 -11.0186 -3.03106 -3.22034 -10.5202 -3.0775 -3.25945 -10.4874 -3.44314 -3.50976 -10.3309 -3.45946 -3.52214 -10.323 -1.64909 -2.26009 -11.5004 -1.41837 -1.83756 -12.3769 -1.2087 -1.39824 -13.2504 -1.1485 -1.26384 -13.5125 -1.1356 -1.22514 -13.6131 -1.77528 -2.31192 -11.7708 -2.76898 -2.22385 -11.7016 -3.72549 -1.93213 -11.7016 -3.87855 -1.87237 -11.6983 -1.8702 -2.36436 -12.043 -1.489 -1.6909 -12.6763 -1.65356 -1.10617 -13.4707 -1.6853 -1.03601 -13.578 -1.97584 -2.42738 -12.3579 -1.21711 -2.17081 -12.9566 -0.735824 -1.8941 -13.5038 -2.08329 -2.49557 -12.6681 -1.89771 -2.17714 -13.5977 -1.77948 -1.95919 -14.2156 -2.19496 -2.54065 -12.959 -1.72918 -1.94188 -13.6106 -1.44553 -1.64989 -14.0061 -2.35204 -2.54955 -13.2089 -3.07237 -2.04527 -13.6852 -3.25328 -1.85321 -13.835 -2.57025 -2.53847 -13.452 -3.24888 -1.80834 -13.5318 -3.39584 -1.61925 -13.5203 -2.76372 -2.54845 -13.7176 -3.50124 -1.8796 -13.8108 -3.54585 -1.83945 -13.817 -2.92885 -2.53193 -13.9802 -2.99259 -2.09697 -14.7545 -3.09653 -2.44251 -14.2516 -3.71262 -2.27737 -14.1822 -3.20001 -2.39945 -14.575 -3.27118 -2.88425 -14.8357 -3.2678 -2.34914 -14.8694 -3.0335 -2.15292 -15.0425 -3.37359 -2.30833 -15.1361 -3.23364 -2.23978 -15.2672 -3.43672 -2.23529 -15.4087 -3.46711 -2.21417 -15.4233 
</DataArray>
</Points>
<Lines>
<DataArray type="Int32" Name="connectivity" NumberOfComponents="1" format="ascii" >
0 1 2 3 4 5 6 7 8 9 10 11 12 13 14 15 16 17 18 19 20 21 22 23 24 25 26 27 28 29 30 31 32 33 34 35 36 37 38 39 40 41 42 43 44 45 46 47 48 49 50 51 52 53 54 55 56 57 58 59 60 61 62 63 64 65 66 67 68 69 70 71 72 73 74 75 76 77 78 79 80 81 82 83 84 85 86 87 88 89 90 91 92 93 94 95 96 97 98 99 100 101 102 103 104 105 106 107 108 109 110 111 112 113 114 115 116 117 118 119 120 121 122 123 124 125 126 127 128 129 130 131 132 133 134 135 136 137 138 139 140 141 142 143 144 145 146 147 148 149 150 151 152 153 154 155 156 157 158 159 160 161 162 163 164 165 166 167 168 169 170 171 172 173 174 175 176 177 178 179 180 181 182 183 184 185 186 187 188 189 190 191 192 193 194 195 196 197 198 199 200 201 202 203 204 205 206 207 208 209 210 211 212 213 214 215 216 217 218 219 220 221 222 223 224 225 226 227 228 229 230 231 232 233 234 235 236 237 238 239 240 241 242 243 244 245 246 247 248 249 250 251 252 253 254 255 256 257 258 259 260 261 262 263 264 265 266 267 268 269 270 271 272 273 274 275 276 277 278 279 280 281 282 283 284 285 286 287 288 289 290 291 292 293 294 295 
</DataArray>
<DataArray type="Int32" Name="offsets" NumberOfComponents="1" format="ascii" >
43 54 64 74 84 94 104 113 122 131 140 150 159 167 175 183 191 199 206 213 219 225 230 236 242 247 253 258 262 266 269 272 275 278 281 284 286 288 290 292 294 296 
</DataArray>

</Lines>
</Piece>
</PolyData>
</VTKFile>
