<?xml version="1.0"?><VTKFile type="PolyData" version="0.1" byte_order="LittleEndian">
<PolyData>
<Piece NumberOfLines="13" NumberOfPoints="42">
<PointData Scalars=" PointData">
<DataArray type="Float32" Name="time" NumberOfComponents="1" format="ascii" >
0 0.600077 0.792047 0.99489 1.1866 1.40803 1.6262 1.83047 2.03819 2.2498 2.4729 2.6786 2.87985 3 0.600077 2.19107 3 0.792047 2.38508 3 0.99489 2.52956 3 1.1866 2.83915 3 1.40803 3 1.6262 3 1.83047 3 2.03819 3 2.2498 3 2.4729 3 2.6786 3 2.87985 3 
</DataArray>

</PointData>
<CellData Scalars=" CellData">
<DataArray type="Float32" Name="radius" NumberOfComponents="1" format="ascii" >
0.101845 0.048552 0.0546828 0.0515751 0.0369336 0.0532678 0.0461663 0.0569531 0.050304 0.0509722 0.0464286 0.0454205 0.0540131 
</DataArray>
<DataArray type="Float32" Name="subType" NumberOfComponents="1" format="ascii" >
1 2 2 2 2 2 2 2 2 2 2 2 2 
</DataArray>
<DataArray type="Float32" Name="creationTime" NumberOfComponents="1" format="ascii" >
0 0.600077 0.792047 0.99489 1.1866 1.40803 1.6262 1.83047 2.03819 2.2498 2.4729 2.6786 2.87985 
</DataArray>

</CellData>
<Points>
<DataArray type="Float32" Name="Coordinates" NumberOfComponents="3" format="ascii" >
0 0 -3 0.00530778 0.00109532 -3.95549 0.0136314 0.00495492 -4.2569 0.0158626 0.0177551 -4.57311 -0.00170164 0.00623236 -4.86946 -0.0778017 -0.033924 -5.19916 -0.170325 -0.109553 -5.51018 -0.251388 -0.186159 -5.7991 -0.346961 -0.280256 -6.08162 -0.451848 -0.411607 -6.34957 -0.56199 -0.525945 -6.64 -0.62981 -0.590205 -6.92819 -0.708164 -0.640011 -7.20751 -0.753179 -0.669139 -7.37383 0.00530778 0.00109532 -3.95549 0.592134 -0.0593864 -4.76294 0.873747 -0.121346 -5.16082 0.0136314 0.00495492 -4.2569 -0.576566 0.604632 -4.79732 -0.774662 0.838455 -5.01229 0.0158626 0.0177551 -4.57311 0.873992 0.0360655 -5.08622 1.11606 0.022971 -5.25907 -0.00170164 0.00623236 -4.86946 0.604244 0.783226 -5.04008 0.659037 0.855994 -5.06668 -0.0778017 -0.033924 -5.19916 -0.917899 -0.191261 -5.51501 -0.170325 -0.109553 -5.51018 0.19546 -0.494492 -6.12235 -0.251388 -0.186159 -5.7991 -0.426617 -0.854877 -5.84842 -0.346961 -0.280256 -6.08162 -0.889182 -0.423561 -6.34131 -0.451848 -0.411607 -6.34957 -0.912521 -0.446815 -6.36625 -0.56199 -0.525945 -6.64 -0.78881 -0.316138 -6.75712 -0.62981 -0.590205 -6.92819 -0.524109 -0.73864 -7.05819 -0.708164 -0.640011 -7.20751 -0.682649 -0.584766 -7.26276 
</DataArray>
</Points>
<Lines>
<DataArray type="Int32" Name="connectivity" NumberOfComponents="1" format="ascii" >
0 1 2 3 4 5 6 7 8 9 10 11 12 13 14 15 16 17 18 19 20 21 22 23 24 25 26 27 28 29 30 31 32 33 34 35 36 37 38 39 40 41 
</DataArray>
<DataArray type="Int32" Name="offsets" NumberOfComponents="1" format="ascii" >
14 17 20 23 26 28 30 32 34 36 38 40 42 
</DataArray>

</Lines>
</Piece>
</PolyData>
</VTKFile>
