<?xml version="1.0"?><VTKFile type="PolyData" version="0.1" byte_order="LittleEndian">
<PolyData>
<Piece NumberOfLines="20" NumberOfPoints="563">
<PointData Scalars=" PointData">
<DataArray type="Float32" Name="time" NumberOfComponents="1" format="ascii" >
0 0.019951 0.0399217 0.0599121 0.0799222 0.099952 0.120002 0.125672 0.145747 0.165842 0.185957 0.206092 0.226246 0.246421 0.266616 0.286831 0.307066 0.327322 0.341828 0.362118 0.382428 0.402759 0.42311 0.443482 0.463874 0.478841 0.499269 0.519717 0.540186 0.547445 0.547449 0.567946 0.588463 0.609002 0.628208 0.648786 0.669386 0.690006 0.710648 0.73131 0.742602 0.763297 0.784013 0.80475 0.825509 0.84311 0.863908 0.884727 0.905567 0.926429 0.947313 0.968218 0.989144 1.01009 1.01354 1.03451 1.05551 1.07652 1.09756 1.11862 1.1397 1.14538 1.16649 1.18762 1.20877 1.22995 1.25115 1.27237 1.29361 1.29883 1.3201 1.34139 1.36076 1.3821 1.40346 1.42484 1.44624 1.46767 1.48912 1.51059 1.53208 1.5536 1.57514 1.5967 1.61828 1.61986 1.64147 1.6631 1.68476 1.70643 1.72814 1.74986 1.77161 1.77201 1.79378 1.81558 1.8374 1.85924 1.88111 1.903 1.92491 1.94685 1.96881 1.98413 2.00613 2.02815 2.0502 2.07228 2.07975 2.10185 2.12398 2.14613 2.16831 2.19051 2.21274 2.23499 2.25727 2.27957 2.28002 2.30234 2.32469 2.34707 2.36946 2.39189 2.41434 2.43681 2.45931 2.48183 2.50438 2.52255 2.54514 2.56776 2.59041 2.61308 2.63577 2.65849 2.66642 2.66643 2.68918 2.71196 2.73477 2.7576 2.78045 2.80334 2.82624 2.84918 2.87214 2.88569 2.90869 2.93172 2.95477 2.97785 3 0.579505 0.625299 0.671538 0.71823 0.765385 0.813011 0.861118 0.909716 0.958815 1.00843 1.05856 1.10922 1.16043 1.2122 1.26454 1.31746 1.37097 1.42509 1.47983 1.53521 1.59124 1.64794 1.70532 1.7634 1.8222 1.88173 1.94202 2.00308 2.06493 2.12759 2.19109 2.25545 2.3207 2.38684 2.39006 2.45718 2.52526 2.59434 2.66442 2.73556 2.80777 2.8811 2.95557 3 0.800576 0.800589 0.863231 0.927262 0.992742 1.05974 1.12833 1.19858 1.27058 1.34443 1.4202 1.49802 1.57799 1.66023 1.74489 1.83209 1.92201 2.01482 2.1107 2.20987 2.31256 2.41904 2.52959 2.64453 2.76423 2.88911 3 0.940733 0.994797 1.04954 1.10498 1.16113 1.21801 1.27565 1.33405 1.39325 1.45327 1.51412 1.57583 1.63842 1.70193 1.76637 1.83178 1.89819 1.96562 2.03411 2.1037 2.17441 2.24628 2.31936 2.39369 2.4693 2.54624 2.62457 2.70433 2.78557 2.86836 2.95274 3 1.01092 1.04784 1.08657 1.12729 1.17023 1.21563 1.26381 1.31511 1.36998 1.42894 1.49266 1.56197 1.63795 1.72202 1.81612 1.92294 2.04651 2.19304 2.37307 2.60661 2.93957 3 1.01092 1.05103 1.09149 1.13231 1.1735 1.21507 1.25702 1.29936 1.34209 1.38523 1.42878 1.47275 1.51715 1.56198 1.60726 1.653 1.69919 1.74586 1.79301 1.84066 1.8888 1.93746 1.98665 2.03637 2.08663 2.13746 2.18886 2.24085 2.29343 2.34663 2.40046 2.45493 2.51005 2.56586 2.62235 2.67955 2.73747 2.79615 2.82669 2.88652 2.94716 3 2.82669 2.89 2.95948 3 1.09355 1.14422 1.19517 1.24643 1.29798 1.34983 1.40199 1.45445 1.50723 1.56033 1.61374 1.66748 1.72155 1.77595 1.83068 1.88576 1.94118 1.99695 2.05307 2.10955 2.16639 2.2236 2.28118 2.33914 2.39748 2.45621 2.51532 2.57484 2.63476 2.69508 2.75582 2.81698 2.87856 2.94058 3 1.21061 1.25704 1.30398 1.35143 1.39941 1.44792 1.49698 1.54661 1.59681 1.64759 1.69898 1.75099 1.80363 1.85691 1.91086 1.96548 2.02081 2.07685 2.13362 2.19115 2.24945 2.30855 2.36846 2.42921 2.49082 2.55333 2.61675 2.68111 2.74644 2.81277 2.88013 2.94855 3 1.31347 1.36334 1.41384 1.465 1.51681 1.56931 1.62252 1.67644 1.7311 1.78652 1.84272 1.89973 1.91642 1.9745 2.03344 2.09326 2.15399 2.21567 2.27831 2.34195 2.40663 2.47237 2.53922 2.60721 2.67637 2.74676 2.81841 2.89138 2.96571 3 1.48791 1.52369 1.55982 1.57453 1.61116 1.64815 1.68551 1.72324 1.76136 1.79988 1.83879 1.87811 1.91785 1.95802 1.99862 2.03967 2.08118 2.12315 2.16559 2.20853 2.25196 2.2959 2.34037 2.38537 2.42763 2.4737 2.52034 2.56757 2.61541 2.66387 2.71296 2.7627 2.81312 2.86422 2.91604 2.96858 3 1.62288 1.68605 1.75012 1.81512 1.88108 1.94802 2.01597 2.08497 2.15505 2.22624 2.29858 2.3721 2.44684 2.52286 2.60018 2.67886 2.75894 2.84047 2.92352 3 1.77999 1.924 2.06926 2.21578 2.36359 2.51272 2.66319 2.81501 2.96823 3 1.84342 1.86262 1.92586 1.99249 2.0629 2.13755 2.21698 2.30184 2.39294 2.49126 2.59804 2.71488 2.84388 2.98787 3 1.86262 1.89021 1.92047 1.95399 1.99156 2.03429 2.08384 2.14278 2.21554 2.31065 2.44827 2.70084 3 2.10879 2.17297 2.23889 2.30663 2.3763 2.44802 2.52191 2.5981 2.67674 2.758 2.84206 2.92911 3 2.26466 2.31681 2.37017 2.4248 2.48077 2.53814 2.59698 2.65737 2.7194 2.77251 2.77252 2.8378 2.90498 2.9742 3 2.48202 2.53183 2.59488 2.68086 2.81671 3 2.58002 2.66781 2.75742 2.84891 2.94238 3 2.78532 2.83021 2.87554 2.92131 2.96753 3 
</DataArray>

</PointData>
<CellData Scalars=" CellData">
<DataArray type="Float32" Name="radius" NumberOfComponents="1" format="ascii" >
0.0293582 0.00980449 0.0314288 0.00878452 0.00401816 0.0220892 0.00490742 0.0464074 0.0188022 0.00630514 0.0220354 0.0492304 0.024967 0.0107335 0.0104455 0.00114752 0 8.44417e-06 0.0132985 0.0210647 
</DataArray>
<DataArray type="Float32" Name="subType" NumberOfComponents="1" format="ascii" >
1 2 2 2 2 2 3 2 2 2 2 2 2 2 3 2 2 2 2 2 
</DataArray>
<DataArray type="Float32" Name="creationTime" NumberOfComponents="1" format="ascii" >
0 0.579505 0.800576 0.940733 1.01092 1.01092 2.82669 1.09355 1.21061 1.31347 1.48791 1.62288 1.77999 1.84342 1.86262 2.10879 2.26466 2.48202 2.58002 2.78532 
</DataArray>

</CellData>
<Points>
<DataArray type="Float32" Name="Coordinates" NumberOfComponents="3" format="ascii" >
0 0 -3 0.00506867 0.00684274 -3.04927 0.0136391 0.0145261 -3.09793 0.0235008 0.0215425 -3.14644 0.0339858 0.0292866 -3.19471 0.0442432 0.0325077 -3.24354 0.0542112 0.0365389 -3.29237 0.0573938 0.037692 -3.30609 0.0704156 0.0437391 -3.35399 0.0833052 0.0498388 -3.40191 0.0956209 0.0572997 -3.44979 0.106968 0.0645838 -3.49794 0.115659 0.073575 -3.54635 0.124275 0.0827265 -3.59474 0.135661 0.0908194 -3.64275 0.145876 0.100881 -3.69065 0.15556 0.111403 -3.73856 0.162154 0.122382 -3.7869 0.166821 0.130261 -3.82148 0.17039 0.135133 -3.87112 0.177853 0.142419 -3.92002 0.184824 0.149952 -3.96895 0.191879 0.156717 -4.01799 0.202564 0.16342 -4.06637 0.213474 0.168943 -4.11485 0.220362 0.173755 -4.15054 0.229778 0.179991 -4.19925 0.235946 0.187666 -4.24827 0.241742 0.19376 -4.29756 0.243653 0.195733 -4.31506 0.243654 0.195734 -4.31507 0.249807 0.200749 -4.36444 0.256438 0.208113 -4.41345 0.26214 0.217105 -4.4623 0.267154 0.224485 -4.50815 0.27116 0.235178 -4.55683 0.274065 0.246418 -4.60546 0.276408 0.255995 -4.65448 0.279166 0.265146 -4.70356 0.279474 0.273597 -4.75284 0.280257 0.278226 -4.77973 0.282274 0.286572 -4.82899 0.279255 0.294002 -4.87834 0.274879 0.301704 -4.92755 0.271293 0.308578 -4.97695 0.264949 0.312774 -5.01862 0.257756 0.317453 -5.06787 0.252767 0.321063 -5.11749 0.247947 0.324336 -5.16715 0.242379 0.328902 -5.21663 0.237733 0.33352 -5.2662 0.232921 0.335683 -5.31592 0.231546 0.339589 -5.36575 0.229471 0.344509 -5.41546 0.229157 0.345477 -5.42362 0.227069 0.353852 -5.47287 0.226105 0.361115 -5.52233 0.225235 0.367203 -5.57195 0.226836 0.373797 -5.62148 0.229031 0.379011 -5.67116 0.231036 0.386008 -5.72063 0.231812 0.388076 -5.7339 0.234442 0.396051 -5.78319 0.237309 0.404392 -5.8324 0.24072 0.411345 -5.8818 0.24368 0.418398 -5.93121 0.248067 0.426648 -5.98033 0.252999 0.433806 -6.02957 0.257151 0.443104 -6.07852 0.258174 0.445385 -6.09053 0.258736 0.450543 -6.14026 0.258862 0.457083 -6.18983 0.259594 0.463308 -6.23485 0.261609 0.46882 -6.2845 0.26577 0.471761 -6.33424 0.270025 0.474588 -6.38398 0.274117 0.477645 -6.43372 0.27864 0.481479 -6.48336 0.282055 0.485148 -6.53311 0.285617 0.48904 -6.58283 0.288554 0.492288 -6.63264 0.291524 0.495926 -6.68242 0.296245 0.498214 -6.73214 0.300018 0.498314 -6.782 0.305102 0.498247 -6.83174 0.305482 0.498243 -6.83537 0.31178 0.497644 -6.88496 0.317741 0.497212 -6.93461 0.323697 0.496781 -6.98425 0.328517 0.495212 -7.03399 0.332164 0.495989 -7.08385 0.338108 0.496055 -7.1335 0.343959 0.493403 -7.18308 0.344068 0.493353 -7.18399 0.351713 0.492419 -7.23339 0.359357 0.491346 -7.28279 0.368904 0.492353 -7.33186 0.375517 0.497553 -7.38115 0.38193 0.499443 -7.4307 0.388691 0.499999 -7.48024 0.395904 0.49701 -7.52962 0.404397 0.496381 -7.57889 0.414412 0.495326 -7.62787 0.421565 0.493928 -7.66195 0.430097 0.493386 -7.71121 0.437298 0.49238 -7.76068 0.444514 0.491466 -7.81015 0.449767 0.488613 -7.85979 0.451202 0.487492 -7.8766 0.455964 0.485477 -7.92633 0.459055 0.483086 -7.97618 0.461489 0.48021 -8.02603 0.46339 0.478048 -8.07595 0.464113 0.474403 -8.12581 0.464453 0.472237 -8.17576 0.462693 0.469265 -8.22565 0.46177 0.465559 -8.2755 0.461495 0.462283 -8.32539 0.461483 0.462212 -8.3264 0.460194 0.458704 -8.37626 0.459606 0.455258 -8.42614 0.458467 0.451369 -8.47598 0.457178 0.447524 -8.52581 0.456185 0.442333 -8.57553 0.45336 0.437211 -8.62519 0.452756 0.428163 -8.67436 0.452391 0.419058 -8.72352 0.450968 0.409834 -8.77264 0.448603 0.399179 -8.82144 0.447695 0.391665 -8.86098 0.448198 0.383317 -8.91027 0.448512 0.374161 -8.95943 0.446968 0.366362 -9.00879 0.442994 0.357207 -9.05778 0.439375 0.34818 -9.10683 0.436425 0.338947 -9.15588 0.435565 0.336082 -9.17307 0.435564 0.336081 -9.17308 0.433079 0.326714 -9.22213 0.430715 0.317424 -9.2712 0.427422 0.307705 -9.32014 0.423748 0.297135 -9.36887 0.420591 0.286918 -9.41771 0.416212 0.277817 -9.46668 0.41203 0.26873 -9.51567 0.408559 0.260486 -9.56486 0.404598 0.251825 -9.61395 0.403012 0.247439 -9.64306 0.399724 0.24003 -9.69239 0.396647 0.231799 -9.74162 0.392887 0.224973 -9.79101 0.388201 0.218203 -9.84032 0.383666 0.211653 -9.88759 0.0573938 0.037692 -3.30609 0.0673375 -0.0104242 -3.31536 0.0762547 -0.0585015 -3.32581 0.0849701 -0.106365 -3.33735 0.0903401 -0.154977 -3.34774 0.0960346 -0.203497 -3.35838 0.10103 -0.251962 -3.36962 0.106059 -0.300922 -3.37843 0.108453 -0.350034 -3.3875 0.106958 -0.397923 -3.4018 0.105118 -0.445792 -3.41612 0.10289 -0.494008 -3.42917 0.10029 -0.542155 -3.4424 0.0977608 -0.590313 -3.45561 0.0949336 -0.638458 -3.4688 0.0953345 -0.685923 -3.48452 0.100026 -0.73291 -3.50096 0.102978 -0.780544 -3.51586 0.106598 -0.827214 -3.53344 0.110515 -0.874074 -3.55043 0.113412 -0.921549 -3.56585 0.11753 -0.967217 -3.58579 0.120995 -1.01019 -3.61111 0.123457 -1.05111 -3.63973 0.127567 -1.09305 -3.66665 0.131896 -1.13419 -3.69473 0.134759 -1.17631 -3.72152 0.142298 -1.2198 -3.74501 0.149618 -1.26183 -3.77108 0.155523 -1.30395 -3.79738 0.161844 -1.34449 -3.82595 0.168107 -1.38376 -3.85626 0.174222 -1.42181 -3.88811 0.183925 -1.45859 -3.92057 0.184382 -1.46036 -3.92214 0.194328 -1.49683 -3.95487 0.204145 -1.5333 -3.98763 0.212373 -1.56781 -4.02287 0.220474 -1.6022 -4.05824 0.229443 -1.63578 -4.09419 0.242549 -1.66704 -4.13094 0.255578 -1.70106 -4.16519 0.273059 -1.73391 -4.19858 0.283745 -1.75287 -4.21845 0.166821 0.130261 -3.82148 0.16683 0.130257 -3.82148 0.2135 0.113635 -3.82824 0.260475 0.0991449 -3.83737 0.30776 0.0848253 -3.84506 0.355352 0.0703686 -3.85016 0.403195 0.0559482 -3.8484 0.451315 0.0424939 -3.84656 0.497835 0.0241706 -3.84695 0.545362 0.00931809 -3.85148 0.593291 -0.004761 -3.85363 0.641175 -0.0177589 -3.84745 0.689015 -0.0307386 -3.84091 0.736825 -0.0437892 -3.83428 0.784757 -0.0556514 -3.82641 0.832499 -0.0669801 -3.81681 0.880329 -0.0790887 -3.8087 0.929122 -0.088506 -3.80317 0.97713 -0.099141 -3.79411 1.02484 -0.110114 -3.78393 1.07287 -0.119911 -3.77409 1.12091 -0.129743 -3.76431 1.16856 -0.143229 -3.75741 1.21682 -0.153423 -3.74922 1.26501 -0.162304 -3.73927 1.31267 -0.17247 -3.72811 1.35332 -0.181109 -3.7186 0.220362 0.173755 -4.15054 0.183652 0.145162 -4.16884 0.147814 0.116081 -4.18807 0.114141 0.0843786 -4.20708 0.0774605 0.0560471 -4.22583 0.0393622 0.0314725 -4.24692 0.0011318 0.0078299 -4.26882 -0.038762 -0.013941 -4.28966 -0.0796816 -0.0341039 -4.31013 -0.118956 -0.0579026 -4.32991 -0.157305 -0.0833449 -4.34945 -0.191759 -0.111909 -4.37175 -0.224291 -0.144063 -4.39194 -0.256818 -0.176164 -4.41223 -0.291171 -0.208176 -4.42941 -0.326967 -0.239019 -4.44576 -0.36158 -0.270763 -4.46291 -0.396295 -0.30247 -4.47993 -0.430433 -0.335225 -4.49611 -0.466073 -0.364876 -4.51483 -0.503536 -0.391529 -4.53448 -0.540584 -0.41973 -4.55271 -0.577729 -0.443708 -4.57606 -0.615797 -0.467766 -4.59778 -0.654499 -0.492264 -4.61783 -0.696038 -0.513423 -4.63591 -0.735706 -0.539083 -4.65228 -0.775642 -0.564662 -4.66812 -0.814993 -0.589246 -4.68675 -0.853134 -0.61521 -4.70602 -0.887235 -0.638579 -4.73414 -0.905894 -0.651186 -4.75007 0.243653 0.195733 -4.31506 0.194378 0.197215 -4.32342 0.145104 0.198691 -4.33178 0.0961527 0.197289 -4.34187 0.0482568 0.193368 -4.35567 0.000648957 0.187346 -4.36972 -0.0466728 0.183119 -4.3853 -0.0938898 0.176009 -4.40013 -0.141061 0.168937 -4.41513 -0.189159 0.166792 -4.42862 -0.236979 0.162069 -4.44243 -0.284837 0.160504 -4.45683 -0.33268 0.15761 -4.47106 -0.380466 0.156991 -4.48577 -0.429599 0.154339 -4.49465 -0.47827 0.15327 -4.50605 -0.526989 0.149403 -4.51661 -0.575923 0.146022 -4.52631 -0.624929 0.140024 -4.5342 -0.673659 0.134045 -4.54368 -0.722993 0.132037 -4.55156 -0.729918 0.131933 -4.55273 0.243654 0.195734 -4.31507 0.284783 0.223361 -4.3218 0.321739 0.255373 -4.33225 0.358972 0.287085 -4.34265 0.396218 0.318757 -4.35312 0.432974 0.350394 -4.36529 0.469741 0.381419 -4.37891 0.506899 0.412531 -4.39122 0.543944 0.444086 -4.40271 0.581873 0.474679 -4.4139 0.620224 0.504694 -4.42523 0.659553 0.534069 -4.43473 0.697758 0.564442 -4.44559 0.735691 0.594859 -4.45725 0.775428 0.622932 -4.46878 0.815596 0.650079 -4.48101 0.85598 0.678693 -4.4881 0.89753 0.705846 -4.49413 0.940525 0.728554 -4.50578 0.983998 0.748416 -4.52046 1.02735 0.76743 -4.53656 1.07395 0.782746 -4.54625 1.12054 0.798131 -4.55588 1.16683 0.812956 -4.5676 1.21172 0.826236 -4.58518 1.256 0.837891 -4.60525 1.30049 0.850332 -4.62438 1.3422 0.86791 -4.64563 1.38271 0.891649 -4.6628 1.42322 0.915172 -4.68029 1.4638 0.938567 -4.69778 1.5033 0.96347 -4.71566 1.54323 0.989171 -4.7313 1.58217 1.01474 -4.74948 1.62278 1.03822 -4.76677 1.66103 1.06249 -4.78794 1.69965 1.08467 -4.81066 1.73789 1.10722 -4.83367 1.75739 1.11884 -4.84587 1.79481 1.14185 -4.86976 1.83187 1.166 -4.89307 1.86298 1.18667 -4.91444 1.75739 1.11884 -4.84587 1.79267 1.09863 -4.81676 1.82909 1.08104 -4.78737 1.85017 1.07254 -4.7728 0.267154 0.224485 -4.50815 0.233196 0.188715 -4.51636 0.198747 0.15402 -4.52682 0.165458 0.118936 -4.53951 0.130049 0.0849657 -4.54911 0.0924993 0.0545345 -4.56192 0.0532206 0.0265208 -4.57505 0.0134993 -0.000541767 -4.58883 -0.0276602 -0.0276151 -4.59737 -0.0697457 -0.0526882 -4.60737 -0.111793 -0.0771705 -4.61889 -0.154139 -0.100724 -4.63122 -0.196641 -0.122584 -4.64591 -0.236518 -0.147723 -4.66258 -0.276074 -0.170836 -4.68261 -0.315561 -0.192891 -4.70392 -0.356632 -0.212508 -4.72462 -0.397769 -0.232201 -4.74511 -0.43871 -0.253292 -4.76458 -0.479664 -0.274281 -4.78413 -0.519787 -0.295015 -4.80558 -0.559254 -0.317893 -4.82605 -0.597368 -0.34019 -4.84951 -0.635288 -0.363402 -4.87238 -0.674145 -0.386535 -4.89371 -0.710043 -0.41144 -4.91802 -0.748238 -0.434306 -4.94079 -0.786422 -0.455941 -4.96475 -0.824856 -0.479815 -4.98603 -0.862085 -0.503277 -5.00977 -0.897862 -0.526163 -5.03615 -0.932478 -0.550315 -5.06296 -0.966799 -0.575794 -5.0889 -1.00099 -0.601007 -5.11526 -1.03339 -0.625467 -5.14008 0.280257 0.278226 -4.77973 0.299047 0.323716 -4.77093 0.31602 0.370302 -4.76447 0.329454 0.417943 -4.75741 0.338603 0.466984 -4.75405 0.347082 0.516258 -4.75366 0.345476 0.566232 -4.75348 0.342345 0.616128 -4.75418 0.339959 0.666051 -4.75561 0.335448 0.715807 -4.7536 0.335327 0.765457 -4.74769 0.335269 0.814721 -4.73915 0.33192 0.863862 -4.73055 0.323259 0.910394 -4.71443 0.314719 0.956876 -4.6981 0.303944 1.00264 -4.68108 0.293728 1.04856 -4.66415 0.281662 1.09301 -4.64468 0.269899 1.13768 -4.62555 0.262287 1.18425 -4.60903 0.254696 1.23073 -4.59224 0.245995 1.27849 -4.58025 0.239954 1.327 -4.56976 0.235858 1.37611 -4.56132 0.23138 1.42517 -4.55275 0.225608 1.47359 -4.54171 0.220678 1.52066 -4.52557 0.222229 1.56648 -4.50562 0.222066 1.61128 -4.48342 0.219671 1.65559 -4.46037 0.216636 1.70161 -4.44106 0.213519 1.74779 -4.42216 0.210071 1.78153 -4.40716 0.264949 0.312774 -5.01862 0.275536 0.360816 -5.02755 0.285488 0.408433 -5.03911 0.296269 0.455844 -5.05077 0.307893 0.503411 -5.06089 0.319245 0.550622 -5.07281 0.329634 0.598347 -5.08351 0.342455 0.645249 -5.09516 0.353837 0.692657 -5.10625 0.365395 0.740196 -5.11657 0.376641 0.787811 -5.12688 0.386383 0.835803 -5.13697 0.389773 0.849566 -5.14005 0.401046 0.897072 -5.15083 0.412126 0.944623 -5.16161 0.422581 0.991732 -5.1747 0.433209 1.03867 -5.18826 0.44299 1.0854 -5.2031 0.454232 1.1306 -5.2213 0.46297 1.17622 -5.23981 0.47146 1.2217 -5.25877 0.481106 1.26657 -5.27861 0.491767 1.31137 -5.29807 0.502547 1.35604 -5.31778 0.511409 1.40068 -5.33849 0.517921 1.44591 -5.35878 0.524528 1.49057 -5.38028 0.529157 1.5344 -5.40389 0.53419 1.57727 -5.42912 0.53689 1.59706 -5.44004 0.229157 0.345477 -5.42362 0.268234 0.3171 -5.43657 0.308624 0.290966 -5.45019 0.324834 0.280161 -5.4556 0.364152 0.254502 -5.4728 0.405505 0.230454 -5.48735 0.446869 0.206467 -5.50196 0.488224 0.184528 -5.51953 0.529244 0.162431 -5.53767 0.569806 0.140902 -5.55745 0.611793 0.120778 -5.57567 0.653816 0.10076 -5.59393 0.693377 0.0861894 -5.62081 0.732323 0.0744509 -5.64989 0.772817 0.0662736 -5.67805 0.814237 0.0592549 -5.70517 0.854891 0.0520073 -5.73336 0.8946 0.0439929 -5.76267 0.93527 0.0376407 -5.79105 0.975917 0.0327585 -5.81975 1.0152 0.0278783 -5.8503 1.05422 0.0227599 -5.88115 1.09326 0.0177188 -5.91197 1.13179 0.011498 -5.94323 1.16536 0.00481451 -5.97457 1.20217 -0.00155865 -6.00781 1.23972 -0.00749744 -6.04028 1.27693 -0.0126482 -6.07328 1.31189 -0.0149453 -6.10895 1.34646 -0.01529 -6.14508 1.37794 -0.0159075 -6.18391 1.41026 -0.0136686 -6.222 1.44097 -0.0134346 -6.26145 1.47406 -0.0118735 -6.29891 1.50827 -0.00904472 -6.33526 1.54158 -0.00759907 -6.37252 1.56135 -0.00512035 -6.39437 0.231812 0.388076 -5.7339 0.214509 0.34198 -5.7426 0.196842 0.296162 -5.75201 0.176764 0.251304 -5.76122 0.156615 0.206454 -5.7703 0.136936 0.161844 -5.78137 0.12079 0.116965 -5.79638 0.104054 0.0724975 -5.81195 0.0875911 0.0284036 -5.82883 0.0711283 -0.0149817 -5.84744 0.0544504 -0.0580461 -5.86661 0.0373613 -0.101008 -5.88564 0.0186094 -0.143265 -5.90469 -0.000585803 -0.184981 -5.92447 -0.018704 -0.227004 -5.94461 -0.0405801 -0.2671 -5.96496 -0.0628264 -0.307818 -5.98359 -0.0864615 -0.348426 -6.00068 -0.111694 -0.385603 -6.02262 -0.131202 -0.419396 -6.04551 0.258174 0.445385 -6.09053 0.231509 0.48695 -6.09837 0.201882 0.527002 -6.10262 0.172348 0.566981 -6.10804 0.143476 0.607455 -6.11336 0.114686 0.64805 -6.11817 0.0857567 0.688464 -6.12363 0.0552373 0.727169 -6.13203 0.0255987 0.766258 -6.1417 0.0193836 0.774242 -6.14369 0.259594 0.463308 -6.23485 0.269379 0.475579 -6.23456 0.301018 0.514293 -6.23411 0.333103 0.552493 -6.23747 0.363875 0.591803 -6.24027 0.395729 0.630343 -6.24047 0.428066 0.668368 -6.24337 0.457961 0.707698 -6.25108 0.487035 0.746968 -6.26169 0.515896 0.786651 -6.2713 0.544597 0.826504 -6.28068 0.571708 0.86828 -6.28512 0.597788 0.910673 -6.28988 0.624458 0.952667 -6.2949 0.626574 0.955989 -6.29526 0.269379 0.475579 -6.23456 0.289659 0.471203 -6.18907 0.303055 0.468009 -6.141 0.322099 0.458828 -6.09569 0.341816 0.451638 -6.05031 0.361004 0.441006 -6.00538 0.380676 0.43096 -5.96052 0.404476 0.425201 -5.91693 0.431717 0.417266 -5.87576 0.46249 0.406094 -5.83797 0.494151 0.392088 -5.80189 0.522853 0.375536 -5.76445 0.537213 0.367361 -5.7461 0.305482 0.498243 -6.83537 0.302884 0.44899 -6.84357 0.300325 0.400113 -6.8538 0.297068 0.350737 -6.86097 0.294186 0.301521 -6.86931 0.290616 0.252371 -6.87776 0.286928 0.203134 -6.88565 0.283661 0.153738 -6.89267 0.280393 0.104339 -6.89967 0.276785 0.054683 -6.90428 0.275304 0.00470679 -6.90471 0.274752 -0.0449469 -6.91056 0.273434 -0.0839258 -6.91633 0.344068 0.493353 -7.18399 0.332967 0.44524 -7.19185 0.32692 0.39676 -7.20249 0.320234 0.348483 -7.21365 0.31307 0.30022 -7.22458 0.306003 0.251942 -7.2355 0.304271 0.203213 -7.24657 0.301308 0.154504 -7.25746 0.298804 0.105687 -7.26798 0.29676 0.0649582 -7.2769 0.296759 0.0649484 -7.2769 0.294263 0.0158756 -7.28615 0.291741 -0.0331365 -7.29571 0.289363 -0.0820961 -7.30558 0.28834 -0.0998878 -7.30952 0.421565 0.493928 -7.66195 0.381494 0.5027 -7.69054 0.342852 0.51153 -7.72102 0.302333 0.517855 -7.74962 0.262277 0.525597 -7.77853 0.234659 0.530816 -7.79924 0.451202 0.487492 -7.8766 0.4016 0.493012 -7.87962 0.351853 0.495632 -7.88391 0.302217 0.500757 -7.88707 0.252667 0.505311 -7.89197 0.22261 0.50848 -7.89407 0.461483 0.462212 -8.3264 0.489321 0.499585 -8.34452 0.517233 0.53743 -8.36151 0.544113 0.576202 -8.37807 0.566716 0.616397 -8.3974 0.580527 0.644402 -8.41284 
</DataArray>
</Points>
<Lines>
<DataArray type="Int32" Name="connectivity" NumberOfComponents="1" format="ascii" >
0 1 2 3 4 5 6 7 8 9 10 11 12 13 14 15 16 17 18 19 20 21 22 23 24 25 26 27 28 29 30 31 32 33 34 35 36 37 38 39 40 41 42 43 44 45 46 47 48 49 50 51 52 53 54 55 56 57 58 59 60 61 62 63 64 65 66 67 68 69 70 71 72 73 74 75 76 77 78 79 80 81 82 83 84 85 86 87 88 89 90 91 92 93 94 95 96 97 98 99 100 101 102 103 104 105 106 107 108 109 110 111 112 113 114 115 116 117 118 119 120 121 122 123 124 125 126 127 128 129 130 131 132 133 134 135 136 137 138 139 140 141 142 143 144 145 146 147 148 149 150 151 152 153 154 155 156 157 158 159 160 161 162 163 164 165 166 167 168 169 170 171 172 173 174 175 176 177 178 179 180 181 182 183 184 185 186 187 188 189 190 191 192 193 194 195 196 197 198 199 200 201 202 203 204 205 206 207 208 209 210 211 212 213 214 215 216 217 218 219 220 221 222 223 224 225 226 227 228 229 230 231 232 233 234 235 236 237 238 239 240 241 242 243 244 245 246 247 248 249 250 251 252 253 254 255 256 257 258 259 260 261 262 263 264 265 266 267 268 269 270 271 272 273 274 275 276 277 278 279 280 281 282 283 284 285 286 287 288 289 290 291 292 293 294 295 296 297 298 299 300 301 302 303 304 305 306 307 308 309 310 311 312 313 314 315 316 317 318 319 320 321 322 323 324 325 326 327 328 329 330 331 332 333 334 335 336 337 338 339 340 341 342 343 344 345 346 347 348 349 350 351 352 353 354 355 356 357 358 359 360 361 362 363 364 365 366 367 368 369 370 371 372 373 374 375 376 377 378 379 380 381 382 383 384 385 386 387 388 389 390 391 392 393 394 395 396 397 398 399 400 401 402 403 404 405 406 407 408 409 410 411 412 413 414 415 416 417 418 419 420 421 422 423 424 425 426 427 428 429 430 431 432 433 434 435 436 437 438 439 440 441 442 443 444 445 446 447 448 449 450 451 452 453 454 455 456 457 458 459 460 461 462 463 464 465 466 467 468 469 470 471 472 473 474 475 476 477 478 479 480 481 482 483 484 485 486 487 488 489 490 491 492 493 494 495 496 497 498 499 500 501 502 503 504 505 506 507 508 509 510 511 512 513 514 515 516 517 518 519 520 521 522 523 524 525 526 527 528 529 530 531 532 533 534 535 536 537 538 539 540 541 542 543 544 545 546 547 548 549 550 551 552 553 554 555 556 557 558 559 560 561 562 
</DataArray>
<DataArray type="Int32" Name="offsets" NumberOfComponents="1" format="ascii" >
153 197 224 256 278 320 324 359 392 422 459 479 489 504 517 530 545 551 557 563 
</DataArray>

</Lines>
</Piece>
</PolyData>
</VTKFile>
