<?xml version="1.0"?><VTKFile type="PolyData" version="0.1" byte_order="LittleEndian">
<PolyData>
<Piece NumberOfLines="14" NumberOfPoints="60">
<PointData Scalars=" PointData">
<DataArray type="Float32" Name="time" NumberOfComponents="1" format="ascii" >
0 0.49969 0.509567 0.723488 0.970333 1.23251 1.42783 1.59434 1.8416 2.02821 2.24336 2.43418 2.73068 2.95179 3.16091 3.43795 3.63454 3.8665 4.19037 4.49767 4.81755 5.0573 5.31845 5.56811 5.95463 6 2.99582 4.42889 5.92895 6 3.23165 4.62685 6 3.50404 4.8642 6 3.79364 5.24862 6 4.00959 5.35063 6 4.19383 5.65141 6 4.46764 5.82905 6 4.6745 6 4.91318 6 5.12505 6 5.45462 6 5.70067 6 5.9336 6 
</DataArray>

</PointData>
<CellData Scalars=" CellData">
<DataArray type="Float32" Name="radius" NumberOfComponents="1" format="ascii" >
0.073597 0.0483104 0.051644 0.0517459 0.0587091 0.0456802 0.0510339 0.0549657 0.0509917 0.0439557 0.0544356 0.0452806 0.0490116 0.0563493 
</DataArray>
<DataArray type="Float32" Name="subType" NumberOfComponents="1" format="ascii" >
1 2 2 2 2 2 2 2 2 2 2 2 2 2 
</DataArray>
<DataArray type="Float32" Name="creationTime" NumberOfComponents="1" format="ascii" >
0 2.99582 3.23165 3.50404 3.79364 4.00959 4.19383 4.46764 4.6745 4.91318 5.12505 5.45462 5.70067 5.9336 
</DataArray>

</CellData>
<Points>
<DataArray type="Float32" Name="Coordinates" NumberOfComponents="3" format="ascii" >
0 0 -3 -0.0351313 0.0742711 -3.99662 -0.0358811 0.0767392 -4.01602 -0.135058 0.254566 -4.38567 -0.248002 0.452671 -4.811 -0.294358 0.576416 -5.301 -0.326549 0.629895 -5.6705 -0.40484 0.713642 -5.96626 -0.596925 0.768216 -6.38868 -0.78222 0.748572 -6.68456 -0.934675 0.692851 -7.05014 -1.0613 0.636704 -7.37368 -1.30647 0.514112 -7.84091 -1.46206 0.41981 -8.19703 -1.62771 0.273563 -8.50007 -1.80439 0.0978957 -8.92451 -1.94964 0.00470016 -9.22445 -2.11633 -0.0970646 -9.5791 -2.09966 -0.197477 -10.129 -2.19395 -0.291886 -10.6358 -2.21732 -0.421305 -11.1584 -2.25729 -0.533471 -11.5398 -2.30092 -0.655811 -11.9507 -2.34815 -0.771044 -12.3392 -2.37885 -0.948408 -12.9363 -2.38365 -0.970728 -13.0053 -0.0358811 0.0767392 -4.01602 -0.935197 -0.108714 -4.41205 -1.67494 -0.120422 -5.08484 -1.70825 -0.118917 -5.11684 -0.135058 0.254566 -4.38567 0.439812 0.635646 -5.10975 0.984086 0.993007 -5.78999 -0.248002 0.452671 -4.811 -0.892793 1.15125 -5.12121 -1.4493 1.66804 -5.37659 -0.294358 0.576416 -5.301 -0.960302 1.23185 -5.65727 -1.27262 1.55045 -5.88168 -0.326549 0.629895 -5.6705 0.133641 -0.013782 -6.28198 0.388933 -0.11505 -6.6616 -0.40484 0.713642 -5.96626 -0.80189 -0.0151901 -6.52407 -0.893762 -0.180349 -6.65983 -0.596925 0.768216 -6.38868 -0.281546 0.834134 -7.33535 -0.252018 0.849271 -7.45327 -0.78222 0.748572 -6.68456 -0.904815 -0.0505257 -7.13896 -0.934675 0.692851 -7.05014 -1.54099 0.338642 -7.41129 -1.0613 0.636704 -7.37368 -1.47303 0.879289 -7.74841 -1.30647 0.514112 -7.84091 -1.66693 0.624817 -7.93108 -1.46206 0.41981 -8.19703 -1.32133 0.358578 -8.34514 -1.62771 0.273563 -8.50007 -1.6015 0.250667 -8.53167 
</DataArray>
</Points>
<Lines>
<DataArray type="Int32" Name="connectivity" NumberOfComponents="1" format="ascii" >
0 1 2 3 4 5 6 7 8 9 10 11 12 13 14 15 16 17 18 19 20 21 22 23 24 25 26 27 28 29 30 31 32 33 34 35 36 37 38 39 40 41 42 43 44 45 46 47 48 49 50 51 52 53 54 55 56 57 58 59 
</DataArray>
<DataArray type="Int32" Name="offsets" NumberOfComponents="1" format="ascii" >
26 30 33 36 39 42 45 48 50 52 54 56 58 60 
</DataArray>

</Lines>
</Piece>
</PolyData>
</VTKFile>
