<?xml version="1.0"?><VTKFile type="PolyData" version="0.1" byte_order="LittleEndian">
<PolyData>
<Piece NumberOfLines="80" NumberOfPoints="251">
<PointData Scalars=" PointData">
<DataArray type="Float32" Name="time" NumberOfComponents="1" format="ascii" >
0 0.253558 0.461707 0.674812 0.893116 1.11688 1.34638 1.58192 1.82382 2.07245 2.32818 2.59144 2.86267 3 0.461707 0.696428 0.978406 1.29576 1.63841 2.00336 2.37089 2.84989 3 1.07326 1.13467 1.43973 3 1.13467 3 1.43973 3 1.37363 1.41905 1.66972 3 1.41905 3 1.66972 3 1.71279 1.77377 2.02089 3 1.77377 3 2.02089 3 2.08039 2.14202 2.401 3 2.14202 3 2.401 3 2.47361 2.54676 2.83421 3 2.54676 3 2.83421 3 2.87153 2.92157 3 2.92157 3 0.674812 1.10734 1.70624 2.20068 2.71494 3 1.3618 1.41852 1.73506 3 1.41852 3 1.73506 3 1.97098 2.02134 2.26434 3 2.02134 3 2.26434 3 2.47423 2.53958 2.80905 3 2.53958 3 2.80905 3 2.99796 3 0.893116 1.24869 1.61814 1.97612 2.25276 2.63306 2.94991 3 1.36824 1.44213 1.79 3 1.44213 3 1.79 3 1.7415 1.80254 2.09669 3 1.80254 3 2.09669 3 2.10328 2.17458 2.50694 3 2.17458 3 2.50694 3 2.38294 2.4217 2.63119 3 2.4217 3 2.63119 3 2.76751 2.83581 3 2.83581 3 1.11688 1.39016 1.66243 1.91622 2.25314 2.59515 2.86459 3 1.81923 1.89083 2.18113 3 1.89083 3 2.18113 3 2.10343 2.16642 2.43321 3 2.16642 3 2.43321 3 2.36864 2.42462 2.69375 3 2.42462 3 2.69375 3 2.7212 2.77765 3 2.77765 3 1.34638 2.96577 3 1.58192 2.00546 2.37206 2.85413 3 2.30307 2.36275 2.62232 3 2.36275 3 2.62232 3 2.69229 2.74238 2.98917 3 2.74238 3 2.98917 3 1.82382 2.12947 2.48742 2.81252 3 2.4493 2.49847 2.73091 3 2.49847 3 2.73091 3 2.83328 2.88704 3 2.88704 3 2.07245 2.20523 2.49249 2.9347 3 2.61462 2.66863 2.92377 3 2.66863 3 2.92377 3 2.92137 2.96986 3 2.96986 3 2.32818 2.66918 2.96545 3 2.59144 2.77528 3 2.86267 3 
</DataArray>

</PointData>
<CellData Scalars=" CellData">
<DataArray type="Float32" Name="radius" NumberOfComponents="1" format="ascii" >
0.05 0.03 0.02 0.02 0.02 0.02 0.02 0.02 0.02 0.02 0.02 0.02 0.02 0.02 0.02 0.02 0.02 0.02 0.02 0.03 0.02 0.02 0.02 0.02 0.02 0.02 0.02 0.02 0.02 0.02 0.03 0.02 0.02 0.02 0.02 0.02 0.02 0.02 0.02 0.02 0.02 0.02 0.02 0.02 0.02 0.03 0.02 0.02 0.02 0.02 0.02 0.02 0.02 0.02 0.02 0.02 0.02 0.03 0.03 0.02 0.02 0.02 0.02 0.02 0.02 0.03 0.02 0.02 0.02 0.02 0.02 0.03 0.02 0.02 0.02 0.02 0.02 0.03 0.03 0.03 
</DataArray>
<DataArray type="Float32" Name="subType" NumberOfComponents="1" format="ascii" >
1 2 3 4 4 3 4 4 3 4 4 3 4 4 3 4 4 3 4 2 3 4 4 3 4 4 3 4 4 3 2 3 4 4 3 4 4 3 4 4 3 4 4 3 4 2 3 4 4 3 4 4 3 4 4 3 4 2 2 3 4 4 3 4 4 2 3 4 4 3 4 2 3 4 4 3 4 2 2 2 
</DataArray>
<DataArray type="Float32" Name="creationTime" NumberOfComponents="1" format="ascii" >
0 0.461707 1.07326 1.13467 1.43973 1.37363 1.41905 1.66972 1.71279 1.77377 2.02089 2.08039 2.14202 2.401 2.47361 2.54676 2.83421 2.87153 2.92157 0.674812 1.3618 1.41852 1.73506 1.97098 2.02134 2.26434 2.47423 2.53958 2.80905 2.99796 0.893116 1.36824 1.44213 1.79 1.7415 1.80254 2.09669 2.10328 2.17458 2.50694 2.38294 2.4217 2.63119 2.76751 2.83581 1.11688 1.81923 1.89083 2.18113 2.10343 2.16642 2.43321 2.36864 2.42462 2.69375 2.7212 2.77765 1.34638 1.58192 2.30307 2.36275 2.62232 2.69229 2.74238 2.98917 1.82382 2.4493 2.49847 2.73091 2.83328 2.88704 2.07245 2.61462 2.66863 2.92377 2.92137 2.96986 2.32818 2.59144 2.86267 
</DataArray>

</CellData>
<Points>
<DataArray type="Float32" Name="Coordinates" NumberOfComponents="3" format="ascii" >
0 0 -3 -0.0135551 -0.00379122 -3.9999 0.013199 0.145694 -4.78536 0.036447 0.377517 -5.55068 -0.0569688 0.48328 -6.33813 -0.37283 1.15829 -6.62898 -0.952811 1.15223 -7.17997 -1.4833 0.894104 -7.72029 -1.64196 0.511376 -8.40465 -1.50798 0.312629 -9.1679 -1.64891 0.671762 -9.86873 -1.82508 0.911578 -10.6113 -1.98676 1.16157 -11.3539 -1.9892 1.31125 -11.7204 -0.0135551 -0.00379122 -3.9999 0.262992 -0.178221 -4.09757 0.560247 -0.42843 -4.03869 0.901241 -0.667397 -3.97578 1.25552 -0.902783 -3.90752 1.60573 -1.15744 -3.90792 1.94753 -1.37973 -3.85854 2.31978 -1.71198 -3.88174 2.42875 -1.81306 -3.87992 0.262992 -0.178221 -4.09757 0.360946 -0.152001 -4.07175 0.57436 -0.26113 -4.0597 0.631045 -0.312259 -4.0532 0.360946 -0.152001 -4.07175 0.327184 0.173295 -3.81779 0.57436 -0.26113 -4.0597 0.839662 0.0332527 -4.09738 0.560247 -0.42843 -4.03869 0.61494 -0.397051 -3.98393 0.710682 -0.311896 -3.781 0.771541 -0.247531 -3.72849 0.61494 -0.397051 -3.98393 0.944427 -0.502115 -4.12932 0.710682 -0.311896 -3.781 0.898065 -0.648381 -3.63486 0.901241 -0.667397 -3.97578 1.00697 -0.62895 -3.93251 1.24538 -0.627791 -3.90495 1.34305 -0.623387 -3.90721 1.00697 -0.62895 -3.93251 1.03834 -0.289191 -4.05373 1.24538 -0.627791 -3.90495 1.46674 -0.463992 -4.23158 1.25552 -0.902783 -3.90752 1.30136 -0.876152 -4.01075 1.39364 -0.821423 -4.22543 1.41604 -0.804214 -4.31295 1.30136 -0.876152 -4.01075 1.65859 -0.71895 -3.93047 1.39364 -0.821423 -4.22543 1.22784 -0.96493 -4.55263 1.60573 -1.15744 -3.90792 1.71058 -1.13553 -3.96316 1.83137 -0.98708 -4.10797 1.84738 -0.94928 -4.14169 1.71058 -1.13553 -3.96316 1.76325 -0.74233 -3.91784 1.83137 -0.98708 -4.10797 1.73171 -0.804281 -4.16307 1.94753 -1.37973 -3.85854 2.01589 -1.34304 -3.7735 2.09492 -1.28467 -3.69559 2.01589 -1.34304 -3.7735 1.95044 -1.25639 -3.69814 0.013199 0.145694 -4.78536 0.425055 0.437195 -4.84903 0.824868 0.984838 -4.91017 0.923028 1.51605 -4.95725 1.03526 2.04636 -5.01957 1.09322 2.334 -5.04607 0.425055 0.437195 -4.84903 0.457051 0.467862 -4.77175 0.553792 0.524762 -4.55961 0.582956 0.531619 -4.48272 0.457051 0.467862 -4.77175 0.665105 0.160202 -4.62548 0.553792 0.524762 -4.55961 0.955298 0.527168 -4.54795 0.824868 0.984838 -4.91017 0.802261 1.06488 -4.86484 0.712586 1.26058 -4.75874 0.663931 1.34744 -4.79832 0.802261 1.06488 -4.86484 1.10521 1.1945 -4.60891 0.712586 1.26058 -4.75874 0.54862 1.56956 -4.93188 0.923028 1.51605 -4.95725 1.02004 1.53505 -5.01405 1.17275 1.62993 -5.17303 1.21392 1.64934 -5.21368 1.02004 1.53505 -5.01405 1.31462 1.33349 -4.90755 1.17275 1.62993 -5.17303 1.09499 1.81928 -5.3162 1.03526 2.04636 -5.01957 1.03361 2.04813 -5.0232 0.036447 0.377517 -5.55068 0.158676 0.92212 -5.52953 0.350152 1.45094 -5.50656 0.540071 1.94455 -5.5131 0.711611 2.30361 -5.51396 0.912453 2.7916 -5.44552 1.16664 3.13901 -5.44121 1.21036 3.18766 -5.42667 0.158676 0.92212 -5.52953 0.251969 0.925893 -5.57148 0.424362 0.969187 -5.73274 0.507823 0.953121 -5.7751 0.251969 0.925893 -5.57148 0.5362 0.935265 -5.34261 0.424362 0.969187 -5.73274 0.517696 0.627692 -5.91986 0.350152 1.45094 -5.50656 0.325305 1.49801 -5.42585 0.153158 1.52249 -5.26042 0.0720604 1.52063 -5.19849 0.325305 1.49801 -5.42585 0.539242 1.79209 -5.29012 0.153158 1.52249 -5.26042 0.163361 1.89248 -5.09022 0.540071 1.94455 -5.5131 0.539868 1.98687 -5.60364 0.421957 2.07506 -5.79316 0.3827 2.07371 -5.87159 0.539868 1.98687 -5.60364 0.712598 2.36185 -5.69076 0.421957 2.07506 -5.79316 0.622542 2.13125 -6.0283 0.711611 2.30361 -5.51396 0.665297 2.35843 -5.56395 0.571673 2.44708 -5.76637 0.522292 2.44193 -5.83645 0.665297 2.35843 -5.56395 0.361115 2.24553 -5.70984 0.571673 2.44708 -5.76637 0.822051 2.39719 -5.99381 0.912453 2.7916 -5.44552 0.86733 2.87359 -5.49648 0.825351 2.99009 -5.60752 0.86733 2.87359 -5.49648 0.843946 3.0654 -5.41199 -0.0569688 0.48328 -6.33813 -0.173264 0.121764 -6.54421 -0.30855 -0.23072 -6.72602 -0.176233 -0.554847 -6.87532 -0.0149897 -1.01289 -6.8041 0.194938 -1.44648 -6.79632 0.299082 -1.79401 -6.85969 0.379613 -1.95658 -6.85756 -0.173264 0.121764 -6.54421 -0.111452 0.0278427 -6.5084 0.0164674 -0.173098 -6.53771 0.0709511 -0.257578 -6.54091 -0.111452 0.0278427 -6.5084 -0.205986 -0.267396 -6.69682 0.0164674 -0.173098 -6.53771 0.0636356 -0.432944 -6.28959 -0.30855 -0.23072 -6.72602 -0.307509 -0.218193 -6.83937 -0.338 -0.173229 -7.07314 -0.357087 -0.168641 -7.16334 -0.307509 -0.218193 -6.83937 0.0584963 -0.118477 -6.99296 -0.338 -0.173229 -7.07314 -0.712838 -0.207481 -7.19653 -0.176233 -0.554847 -6.87532 -0.168601 -0.552045 -6.9771 -0.144447 -0.578692 -7.21439 -0.142558 -0.595365 -7.28226 -0.168601 -0.552045 -6.9771 0.112333 -0.4429 -7.13287 -0.144447 -0.578692 -7.21439 -0.402475 -0.646543 -7.31487 -0.0149897 -1.01289 -6.8041 0.0732689 -1.00917 -6.84812 0.199942 -0.970239 -7.0215 0.0732689 -1.00917 -6.84812 0.0862488 -0.82648 -7.01235 -0.37283 1.15829 -6.62898 0.287506 1.50694 -5.96385 0.291936 1.5093 -5.95938 -0.952811 1.15223 -7.17997 -0.740652 0.697098 -7.56792 -0.717099 0.266658 -7.83799 -0.741535 -0.281238 -8.11882 -0.679526 -0.434771 -8.1766 -0.740652 0.697098 -7.56792 -0.770306 0.713661 -7.67592 -0.818443 0.768414 -7.90458 -0.837841 0.789626 -7.97807 -0.770306 0.713661 -7.67592 -0.561648 0.448829 -7.81571 -0.818443 0.768414 -7.90458 -1.01683 1.05252 -7.91169 -0.717099 0.266658 -7.83799 -0.621726 0.247051 -7.84143 -0.429936 0.280443 -7.98179 -0.425799 0.281286 -7.9847 -0.621726 0.247051 -7.84143 -0.465038 0.517661 -7.81555 -0.429936 0.280443 -7.98179 -0.434371 0.294916 -7.99653 -1.4833 0.894104 -7.72029 -1.48092 1.14323 -8.12121 -1.46849 1.42074 -8.55539 -1.31286 1.61755 -8.91146 -1.26858 1.76579 -9.09223 -1.48092 1.14323 -8.12121 -1.52656 1.12199 -8.21047 -1.54715 1.0343 -8.43292 -1.55449 1.00594 -8.49949 -1.52656 1.12199 -8.21047 -1.72667 1.3861 -8.33491 -1.54715 1.0343 -8.43292 -1.45511 1.27411 -8.58397 -1.46849 1.42074 -8.55539 -1.40068 1.49157 -8.55108 -1.3008 1.58838 -8.56714 -1.40068 1.49157 -8.55108 -1.31402 1.502 -8.69973 -1.64196 0.511376 -8.40465 -1.55962 0.657535 -8.56085 -1.55914 1.08527 -8.77837 -1.57861 1.73812 -9.02395 -1.58243 1.82863 -9.0639 -1.55962 0.657535 -8.56085 -1.5236 0.617468 -8.63829 -1.41588 0.550729 -8.84211 -1.3973 0.54116 -8.86834 -1.5236 0.617468 -8.63829 -1.25199 0.741603 -8.69226 -1.41588 0.550729 -8.84211 -1.45396 0.61739 -8.94301 -1.55914 1.08527 -8.77837 -1.63846 1.13206 -8.77775 -1.6793 1.15547 -8.78138 -1.63846 1.13206 -8.77775 -1.64854 1.16178 -8.72605 -1.50798 0.312629 -9.1679 -1.03809 0.387764 -9.32017 -0.624363 0.391518 -9.3895 -0.577111 0.392214 -9.39828 -1.64891 0.671762 -9.86873 -1.59411 0.974801 -9.9276 -1.59096 1.32031 -9.98224 -1.82508 0.911578 -10.6113 -1.95867 1.01886 -10.6028 
</DataArray>
</Points>
<Lines>
<DataArray type="Int32" Name="connectivity" NumberOfComponents="1" format="ascii" >
0 1 2 3 4 5 6 7 8 9 10 11 12 13 14 15 16 17 18 19 20 21 22 23 24 25 26 27 28 29 30 31 32 33 34 35 36 37 38 39 40 41 42 43 44 45 46 47 48 49 50 51 52 53 54 55 56 57 58 59 60 61 62 63 64 65 66 67 68 69 70 71 72 73 74 75 76 77 78 79 80 81 82 83 84 85 86 87 88 89 90 91 92 93 94 95 96 97 98 99 100 101 102 103 104 105 106 107 108 109 110 111 112 113 114 115 116 117 118 119 120 121 122 123 124 125 126 127 128 129 130 131 132 133 134 135 136 137 138 139 140 141 142 143 144 145 146 147 148 149 150 151 152 153 154 155 156 157 158 159 160 161 162 163 164 165 166 167 168 169 170 171 172 173 174 175 176 177 178 179 180 181 182 183 184 185 186 187 188 189 190 191 192 193 194 195 196 197 198 199 200 201 202 203 204 205 206 207 208 209 210 211 212 213 214 215 216 217 218 219 220 221 222 223 224 225 226 227 228 229 230 231 232 233 234 235 236 237 238 239 240 241 242 243 244 245 246 247 248 249 250 
</DataArray>
<DataArray type="Int32" Name="offsets" NumberOfComponents="1" format="ascii" >
14 23 27 29 31 35 37 39 43 45 47 51 53 55 59 61 63 66 68 74 78 80 82 86 88 90 94 96 98 100 108 112 114 116 120 122 124 128 130 132 136 138 140 143 145 153 157 159 161 165 167 169 173 175 177 180 182 185 190 194 196 198 202 204 206 211 215 217 219 222 224 229 233 235 237 240 242 246 249 251 
</DataArray>

</Lines>
</Piece>
</PolyData>
</VTKFile>
