<?xml version="1.0"?><VTKFile type="PolyData" version="0.1" byte_order="LittleEndian">
<PolyData>
<Piece NumberOfLines="17" NumberOfPoints="138">
<PointData Scalars=" PointData">
<DataArray type="Float32" Name="time" NumberOfComponents="1" format="ascii" >
0 1 0 0.536448 0.604193 0.694722 0.77365 0.868563 0.914819 0.985331 1 0 0.0592529 0.123347 0.153826 0.278842 0.372782 0.470892 0.572331 0.638332 0.713632 0.844715 0.952214 1 0 0.876574 0.94905 1 0 0.565587 0.585901 0.667564 0.778402 0.843587 0.927378 0.991964 1 0 1 0 0.0795178 0.103202 0.207034 0.308784 0.418794 0.574759 0.687656 0.769402 0.845341 0.983623 1 0 0.00803403 0.0199828 0.0952312 0.169181 0.211363 0.275568 0.308503 0.367071 0.444625 0.50371 0.530615 0.626786 0.739859 0.799924 0.864935 0.953153 0.969572 1 0 0.344282 0.625365 0.784232 1 0 0.416755 0.455924 0.573214 0.740512 0.842971 0.877913 0.933591 1 0 0.925523 1 0 0.127325 0.218778 0.360931 0.426328 0.538872 0.633755 0.69422 0.836228 0.930002 1 0 0.0916776 0.179812 0.254402 0.346044 0.457124 0.525031 0.610284 0.643848 0.704513 0.828897 0.938664 1 0 0.766121 0.916548 1 0 0.392925 0.511991 0.705004 0.824886 0.952313 1 0 1 0 0.0534146 0.137345 0.238508 0.347769 0.440709 0.498518 0.54221 0.591318 0.721604 0.792493 0.868624 0.926163 1 
</DataArray>

</PointData>
<CellData Scalars=" CellData">
<DataArray type="Float32" Name="radius" NumberOfComponents="1" format="ascii" >
0.0417543 0.0486371 0.0546018 0.048203 0.048772 0.0423701 0.0491878 0.053613 0.0583102 0.0567703 0.0465012 0.0458901 0.0529001 0.0498883 0.0581722 0.0456427 0.0519765 
</DataArray>
<DataArray type="Float32" Name="subType" NumberOfComponents="1" format="ascii" >
1 4 4 4 4 4 4 4 4 4 4 4 4 4 4 4 4 
</DataArray>
<DataArray type="Float32" Name="creationTime" NumberOfComponents="1" format="ascii" >
0 0 0 0 0 0 0 0 0 0 0 0 0 0 0 0 0 
</DataArray>

</CellData>
<Points>
<DataArray type="Float32" Name="Coordinates" NumberOfComponents="3" format="ascii" >
0 0 -3 -1.38864 0.0997293 -4.75882 0 0 -3 -0.751565 -1.18218 -4.32014 -0.83333 -1.37311 -4.43743 -0.925061 -1.62488 -4.60715 -0.990056 -1.84518 -4.75852 -1.06258 -2.10336 -4.94912 -1.09915 -2.23474 -5.03209 -1.15378 -2.43094 -5.16365 -1.16452 -2.47014 -5.1933 0 0 -3 -0.0357292 -0.0322054 -3.14131 -0.0713342 -0.0680598 -3.29424 -0.0885747 -0.0879171 -3.36602 -0.144843 -0.166709 -3.66322 -0.189394 -0.218264 -3.88691 -0.238489 -0.270578 -4.11936 -0.294465 -0.316649 -4.35916 -0.338177 -0.338442 -4.51409 -0.397161 -0.347432 -4.689 -0.491994 -0.333796 -4.99472 -0.571603 -0.326114 -5.24366 -0.609419 -0.329101 -5.35314 0 0 -3 0.199606 -0.794928 -3.898 0.215775 -0.861382 -3.97026 0.230963 -0.908816 -4.01923 0 0 -3 0.990742 -1.10422 -4.50634 1.02343 -1.13674 -4.56497 1.18866 -1.27595 -4.7716 1.3639 -1.47331 -5.07668 1.50128 -1.5697 -5.24257 1.70716 -1.71843 -5.40591 1.85659 -1.81747 -5.55271 1.87282 -1.83276 -5.57089 0 0 -3 0.434518 0.279353 -4.85557 0 0 -3 -0.069803 0.123168 -3.17328 -0.0856512 0.158086 -3.2276 -0.155144 0.311471 -3.46451 -0.223422 0.458452 -3.69715 -0.298548 0.624269 -3.94196 -0.350993 0.840231 -4.31001 -0.403031 1.0099 -4.56338 -0.459941 1.12398 -4.74636 -0.497647 1.23146 -4.91852 -0.55116 1.51477 -5.15689 -0.557661 1.54817 -5.18502 0 0 -3 0.00295072 -0.0224767 -3.00959 0.00783369 -0.0552216 -3.02517 0.0383149 -0.259689 -3.12584 0.0538318 -0.461365 -3.22476 0.0626634 -0.575809 -3.28157 0.0864268 -0.748512 -3.3677 0.0975799 -0.836141 -3.41351 0.11692 -0.98633 -3.50432 0.144099 -1.18443 -3.62401 0.180328 -1.32681 -3.72265 0.206798 -1.39005 -3.76468 0.333521 -1.60997 -3.89775 0.460445 -1.89567 -4.01885 0.527937 -2.04678 -4.08258 0.61438 -2.20083 -4.15621 0.743747 -2.39871 -4.26134 0.765928 -2.43708 -4.27985 0.808399 -2.50316 -4.32151 0 0 -3 0.0189383 -0.119006 -3.40602 -0.0125706 -0.228014 -3.73018 -0.0199459 -0.272336 -3.91808 -0.0301152 -0.313975 -4.17587 0 0 -3 0.0204609 0.364057 -4.18955 0.0212424 0.394155 -4.30116 0.0235868 0.507248 -4.62691 0.1706 0.596366 -5.084 0.208248 0.658527 -5.37204 0.220225 0.68145 -5.46964 0.238341 0.704875 -5.6274 0.256435 0.738961 -5.81433 0 0 -3 -1.92954 0.185506 -4.78041 -2.07983 0.203029 -4.92124 0 0 -3 0.221922 0.221268 -3.09237 0.357094 0.38775 -3.18487 0.538636 0.625642 -3.38711 0.61854 0.72691 -3.49064 0.753121 0.914042 -3.65578 0.879879 1.05359 -3.80101 0.949004 1.15146 -3.89312 1.08729 1.31466 -4.17443 1.12615 1.40501 -4.38473 1.11975 1.47193 -4.54379 0 0 -3 0.0569167 0.105553 -3.1893 0.118611 0.20662 -3.36825 0.181689 0.284992 -3.51867 0.281235 0.367225 -3.69869 0.398423 0.449465 -3.92446 0.47693 0.480157 -4.06373 0.580999 0.534546 -4.23018 0.619842 0.554157 -4.2973 0.693722 0.580594 -4.41838 0.840033 0.635388 -4.66818 0.964167 0.69652 -4.88675 1.02926 0.736295 -5.00891 0 0 -3 1.49563 0.5112 -3.33863 1.7981 0.531467 -3.41228 1.9681 0.546541 -3.43597 0 0 -3 0.00456855 0.0405838 -3.98258 -0.00131957 0.0426885 -4.2773 -0.0277599 -0.0398686 -4.74403 -0.0383194 -0.0600573 -5.03604 -0.0434589 -0.0840604 -5.34477 -0.0491214 -0.0904452 -5.45993 0 0 -3 -0.356398 0.358444 -4.38086 0 0 -3 -0.123795 -0.0853278 -3.0678 -0.299384 -0.258611 -3.14388 -0.518297 -0.462093 -3.22446 -0.754959 -0.647028 -3.36677 -0.959059 -0.801507 -3.48297 -1.07285 -0.916529 -3.54728 -1.15335 -1.01189 -3.58784 -1.23507 -1.12536 -3.63347 -1.46197 -1.40816 -3.77246 -1.58429 -1.5623 -3.84605 -1.71886 -1.72545 -3.92191 -1.81987 -1.84782 -3.98061 -1.97101 -1.98029 -4.06056 
</DataArray>
</Points>
<Lines>
<DataArray type="Int32" Name="connectivity" NumberOfComponents="1" format="ascii" >
0 1 2 3 4 5 6 7 8 9 10 11 12 13 14 15 16 17 18 19 20 21 22 23 24 25 26 27 28 29 30 31 32 33 34 35 36 37 38 39 40 41 42 43 44 45 46 47 48 49 50 51 52 53 54 55 56 57 58 59 60 61 62 63 64 65 66 67 68 69 70 71 72 73 74 75 76 77 78 79 80 81 82 83 84 85 86 87 88 89 90 91 92 93 94 95 96 97 98 99 100 101 102 103 104 105 106 107 108 109 110 111 112 113 114 115 116 117 118 119 120 121 122 123 124 125 126 127 128 129 130 131 132 133 134 135 136 137 
</DataArray>
<DataArray type="Int32" Name="offsets" NumberOfComponents="1" format="ascii" >
2 11 24 28 37 39 51 70 75 84 87 98 111 115 122 124 138 
</DataArray>

</Lines>
</Piece>
</PolyData>
</VTKFile>
