<?xml version="1.0"?><VTKFile type="PolyData" version="0.1" byte_order="LittleEndian">
<PolyData>
<Piece NumberOfLines="22" NumberOfPoints="316">
<PointData Scalars=" PointData">
<DataArray type="Float32" Name="time" NumberOfComponents="1" format="ascii" >
0 0.0454834 0.0910244 0.136623 0.18228 0.227996 0.273769 0.301261 0.347128 0.393054 0.420638 0.466658 0.512737 0.540413 0.586587 0.63282 0.660589 0.706918 0.753307 0.781169 0.827654 0.8742 0.902156 0.948798 0.995501 1.02355 1.07035 1.11721 1.14536 1.19232 1.23934 1.26758 1.3147 1.36188 1.39022 1.4375 1.48485 1.51328 1.56073 1.60824 1.63677 1.68438 1.73205 1.76068 1.80845 1.85629 1.88502 1.93296 1.98096 2.00979 2.0579 2.10607 2.135 2.18328 2.23162 2.26065 2.30909 2.3576 2.38674 2.43535 2.48403 2.51327 2.56206 2.61091 2.64025 2.68921 2.73824 2.76768 2.81682 2.86602 2.89557 2.94488 2.99426 3 0.48969 0.615079 0.741254 0.868223 0.995998 1.12459 1.254 1.38426 1.51536 1.64732 1.78014 1.91385 2.04846 2.18396 2.32039 2.4302 2.56831 2.70737 2.81932 2.96013 3 0.609696 0.735085 0.86126 0.98823 1.116 1.24459 1.37401 1.50426 1.63536 1.76732 1.90015 2.03386 2.16846 2.30397 2.4404 2.55021 2.68832 2.82738 2.93932 3 0.730105 0.855494 0.981669 1.10864 1.23641 1.365 1.49442 1.62467 1.75577 1.88773 2.02056 2.15427 2.28887 2.42438 2.56081 2.67062 2.80872 2.94779 3 0.850919 0.976309 1.10248 1.22945 1.35723 1.48582 1.61523 1.74549 1.87659 2.00854 2.14137 2.27508 2.40969 2.54519 2.68162 2.79143 2.92954 3 0.972142 1.09753 1.22371 1.35068 1.47845 1.60704 1.73646 1.86671 1.99781 2.12977 2.2626 2.39631 2.53091 2.66642 2.80284 2.91265 3 1.09378 1.21916 1.34534 1.47231 1.60008 1.72867 1.85809 1.98834 2.11944 2.2514 2.38423 2.51794 2.65254 2.78805 2.92448 3 1.21582 1.34121 1.46739 1.59436 1.72213 1.85072 1.98014 2.11039 2.24149 2.37345 2.50628 2.63999 2.77459 2.9101 3 1.33829 1.46368 1.58985 1.71682 1.84459 1.97318 2.1026 2.23285 2.36395 2.49591 2.62874 2.76245 2.89705 3 1.46117 1.58656 1.71273 1.8397 1.96748 2.09607 2.22548 2.35574 2.48684 2.61879 2.75162 2.88533 3 1.58447 1.70986 1.83604 1.96301 2.09078 2.21937 2.34879 2.47904 2.61014 2.7421 2.87493 3 1.7082 1.83359 1.95977 2.08674 2.21451 2.3431 2.47252 2.60277 2.73387 2.86583 2.99866 3 1.83236 1.95775 2.08393 2.2109 2.33867 2.46726 2.59668 2.72693 2.85803 2.98999 3 1.95695 2.08234 2.20852 2.33549 2.46326 2.59185 2.72127 2.85152 2.98262 3 2.08198 2.20737 2.33354 2.46051 2.58829 2.71688 2.84629 2.97654 3 2.20744 2.33283 2.459 2.58597 2.71375 2.84234 2.97175 3 2.33334 2.45873 2.5849 2.71187 2.83965 2.96824 3 2.45968 2.58507 2.71125 2.83822 2.96599 3 2.58648 2.71186 2.83804 2.96501 3 2.71372 2.83911 2.96528 3 2.84141 2.9668 3 2.96956 3 
</DataArray>

</PointData>
<CellData Scalars=" CellData">
<DataArray type="Float32" Name="radius" NumberOfComponents="1" format="ascii" >
0.2 0.04 0.04 0.04 0.04 0.04 0.04 0.04 0.04 0.04 0.04 0.04 0.04 0.04 0.04 0.04 0.04 0.04 0.04 0.04 0.04 0.04 
</DataArray>
<DataArray type="Float32" Name="subType" NumberOfComponents="1" format="ascii" >
1 2 2 2 2 2 2 2 2 2 2 2 2 2 2 2 2 2 2 2 2 2 
</DataArray>
<DataArray type="Float32" Name="creationTime" NumberOfComponents="1" format="ascii" >
0 0.48969 0.609696 0.730105 0.850919 0.972142 1.09378 1.21582 1.33829 1.46117 1.58447 1.7082 1.83236 1.95695 2.08198 2.20744 2.33334 2.45968 2.58648 2.71372 2.84141 2.96956 
</DataArray>

</CellData>
<Points>
<DataArray type="Float32" Name="Coordinates" NumberOfComponents="3" format="ascii" >
0 0 -3 0.00449831 -0.000357148 -3.24996 -0.00247619 0.00140904 -3.49986 -0.0218796 -0.00225218 -3.74907 -0.0503512 -0.00975369 -3.99733 -0.0905361 -0.00303177 -4.24399 -0.100047 0.00211422 -4.49376 -0.10459 0.0051376 -4.64366 -0.112777 0.0111529 -4.89345 -0.116099 0.0218451 -5.1432 -0.119144 0.0165297 -5.29308 -0.0978078 0.0043994 -5.54187 -0.07354 0.0111026 -5.7906 -0.0584173 0.0173817 -5.9397 -0.0438241 0.0288431 -6.18901 -0.0324576 0.0202351 -6.43861 -0.0125178 0.0356849 -6.58647 0.0181142 0.0614546 -6.83324 0.0581324 0.0839418 -7.07899 0.0814395 0.0871019 -7.22714 0.0991993 0.101 -7.47612 0.122352 0.114226 -7.72469 0.135462 0.11865 -7.87405 0.142723 0.130751 -8.12365 0.129296 0.139537 -8.37314 0.119209 0.1484 -8.52254 0.13139 0.14969 -8.77224 0.148459 0.168445 -9.02095 0.158703 0.179837 -9.17016 0.174546 0.203708 -9.41851 0.180519 0.221358 -9.66782 0.185944 0.2281 -9.81757 0.19644 0.242558 -10.0669 0.220036 0.234927 -10.3157 0.234041 0.227813 -10.4649 0.241384 0.215035 -10.7144 0.249768 0.201465 -10.9639 0.264434 0.197955 -11.1132 0.303719 0.169691 -11.3584 0.321964 0.14747 -11.6068 0.332426 0.131887 -11.7556 0.333368 0.120714 -12.0054 0.324311 0.0845395 -12.2526 0.308246 0.0654453 -12.4005 0.271854 0.0248759 -12.6445 0.244721 -0.00514234 -12.8912 0.235231 -0.019045 -13.0402 0.228135 -0.0417372 -13.2891 0.254871 -0.0764854 -13.5352 0.270787 -0.0979061 -13.6828 0.255497 -0.122281 -13.9311 0.240032 -0.146864 -14.1795 0.231788 -0.164809 -14.3281 0.228009 -0.172177 -14.578 0.251715 -0.154679 -14.8263 0.270162 -0.14527 -14.9748 0.291424 -0.129132 -15.2234 0.30331 -0.124474 -15.4731 0.317343 -0.119205 -15.6223 0.331788 -0.108595 -15.8717 0.340884 -0.0780183 -16.1196 0.35386 -0.0669365 -16.2687 0.377775 -0.0446006 -16.5165 0.400313 -0.0261794 -16.7648 0.414362 -0.0149741 -16.9137 0.440622 -0.00272376 -17.162 0.489597 0.0255518 -17.4056 0.521374 0.0388603 -17.5516 0.567345 0.0410636 -17.7973 0.6055 0.0724164 -18.0424 0.638524 0.0938595 -18.1871 0.718016 0.125503 -18.422 0.767161 0.152138 -18.6657 0.773959 0.155745 -18.6937 -0.0503512 -0.00975369 -3.99733 0.0453285 0.187592 -4.11734 0.106744 0.415567 -4.19953 0.168898 0.641559 -4.2865 0.236473 0.843589 -4.41734 0.347444 1.01385 -4.56293 0.461224 1.1835 -4.70705 0.574992 1.35316 -4.85118 0.688519 1.54417 -4.96576 0.799564 1.7349 -5.0832 0.899533 1.91171 -5.22895 0.967273 2.07998 -5.40098 1.02449 2.26308 -5.5613 1.04153 2.46409 -5.70897 1.05459 2.66032 -5.8633 1.10427 2.80182 -5.99563 1.17431 2.99585 -6.13686 1.24489 3.19002 -6.27764 1.29365 3.34518 -6.39403 1.35548 3.53969 -6.53841 1.36623 3.59684 -6.57822 -0.10459 0.0051376 -4.64366 -0.305944 0.123105 -4.73333 -0.481503 0.240996 -4.86667 -0.668175 0.363149 -4.97951 -0.818276 0.478752 -5.14262 -0.968374 0.594332 -5.30575 -1.12142 0.665797 -5.49006 -1.27407 0.737721 -5.67452 -1.40441 0.8031 -5.87759 -1.50803 0.858338 -6.09829 -1.60706 0.939207 -6.31313 -1.71222 1.03381 -6.51926 -1.79453 1.11556 -6.74072 -1.89614 1.19234 -6.95585 -1.99252 1.26709 -7.17407 -2.07079 1.32695 -7.34812 -2.1985 1.39151 -7.55311 -2.27638 1.47179 -7.77669 -2.33805 1.52033 -7.96065 -2.37883 1.54637 -8.05714 -0.119144 0.0165297 -5.29308 -0.287545 -0.149501 -5.37416 -0.484129 -0.284794 -5.44867 -0.677427 -0.41281 -5.54219 -0.868041 -0.546047 -5.63392 -1.0583 -0.679107 -5.72664 -1.24348 -0.833796 -5.79207 -1.40868 -1.01055 -5.85504 -1.58993 -1.17498 -5.90615 -1.77711 -1.33592 -5.94566 -1.99937 -1.44909 -5.96277 -2.22931 -1.54631 -5.9761 -2.45558 -1.65188 -5.98869 -2.70165 -1.69166 -5.96956 -2.94178 -1.76009 -5.95716 -3.13651 -1.7939 -5.92655 -3.38221 -1.80029 -5.88081 -3.62969 -1.83135 -5.86386 -3.72163 -1.83615 -5.84796 -0.0584173 0.0173817 -5.9397 -0.173541 0.222542 -6.02429 -0.285692 0.422666 -6.12365 -0.388516 0.63309 -6.21111 -0.527458 0.836577 -6.2534 -0.626466 1.0553 -6.32309 -0.718776 1.28516 -6.3569 -0.823701 1.51012 -6.38663 -0.951674 1.71858 -6.43831 -1.07096 1.93409 -6.48104 -1.18561 2.15419 -6.5112 -1.31653 2.3631 -6.55261 -1.44915 2.57226 -6.58676 -1.55555 2.77907 -6.67845 -1.66196 2.9953 -6.74495 -1.7635 3.16536 -6.77273 -1.88198 3.37239 -6.84754 -1.94861 3.47571 -6.87897 -0.0125178 0.0356849 -6.58647 0.00485412 0.269555 -6.67309 0.0152871 0.499332 -6.77104 0.0423271 0.738752 -6.83772 0.0691436 0.978958 -6.90161 0.0973053 1.2187 -6.96665 0.114814 1.46227 -7.02021 0.0715308 1.702 -7.07639 -0.0385239 1.90029 -7.18159 -0.158414 2.09866 -7.27526 -0.288889 2.28826 -7.37288 -0.405779 2.47911 -7.48429 -0.551246 2.67135 -7.55051 -0.708914 2.85788 -7.60389 -0.840175 3.07064 -7.60397 -0.912226 3.25717 -7.60784 -0.982397 3.39838 -7.62196 0.0814395 0.0871019 -7.22714 0.0699661 0.308162 -7.34333 0.0647609 0.513047 -7.48649 0.067036 0.718539 -7.62886 0.0440484 0.943695 -7.73505 0.0422514 1.16049 -7.85953 0.0386775 1.38285 -7.97374 0.0405855 1.62919 -8.01635 0.00790456 1.8767 -8.02926 -0.0167911 2.12496 -8.04533 -0.0128069 2.37016 -8.09393 -0.0452044 2.61184 -8.14909 -0.0735613 2.85337 -8.20705 -0.111069 3.09073 -8.27597 -0.148725 3.33105 -8.33368 -0.151521 3.46255 -8.37435 0.135462 0.11865 -7.87405 -0.062206 -0.00666085 -7.96194 -0.282339 -0.10265 -8.03142 -0.501788 -0.196703 -8.10556 -0.722911 -0.281421 -8.18573 -0.940509 -0.369817 -8.27139 -1.15052 -0.463446 -8.36951 -1.35367 -0.607765 -8.3896 -1.5535 -0.754221 -8.35617 -1.73829 -0.922607 -8.356 -1.91673 -1.09766 -8.35227 -2.09841 -1.26915 -8.34304 -2.29425 -1.42434 -8.35082 -2.5062 -1.55588 -8.33422 -2.6476 -1.64007 -8.32318 0.119209 0.1484 -8.52254 0.294384 0.019013 -8.64531 0.464718 -0.107665 -8.77736 0.635651 -0.249114 -8.89258 0.78825 -0.415884 -8.99935 0.953384 -0.57388 -9.10069 1.10881 -0.718689 -9.23249 1.26777 -0.886093 -9.32844 1.45637 -1.0433 -9.37553 1.67481 -1.16103 -9.40595 1.89537 -1.27368 -9.44006 2.09803 -1.41752 -9.46723 2.31308 -1.54195 -9.49497 2.48162 -1.62007 -9.53523 0.158703 0.179837 -9.17016 0.249261 0.401541 -9.2419 0.331096 0.624894 -9.31882 0.437919 0.85076 -9.3274 0.560544 1.0613 -9.38339 0.682196 1.2748 -9.42942 0.830473 1.46817 -9.48531 0.991905 1.65363 -9.53053 1.14824 1.84538 -9.56641 1.30329 2.03773 -9.60463 1.47482 2.2191 -9.61822 1.64466 2.39375 -9.67436 1.75975 2.56652 -9.72239 0.185944 0.2281 -9.81757 0.201915 -0.0068441 -9.90151 0.206142 -0.235302 -10.0029 0.203981 -0.4573 -10.1179 0.183059 -0.667221 -10.252 0.125205 -0.859751 -10.4007 0.0470515 -1.03668 -10.559 -0.0410718 -1.20942 -10.7168 -0.129195 -1.3899 -10.8657 -0.227843 -1.531 -11.047 -0.282073 -1.69516 -11.2275 -0.258395 -1.85561 -11.3961 0.234041 0.227813 -10.4649 0.40975 0.0613705 -10.5275 0.578764 -0.102747 -10.6112 0.733779 -0.249066 -10.7418 0.892387 -0.393628 -10.87 1.05403 -0.535556 -10.9974 1.21945 -0.704941 -11.0777 1.39056 -0.878455 -11.1335 1.5691 -1.03308 -11.2154 1.71183 -1.2193 -11.3018 1.85353 -1.40661 -11.3874 1.85496 -1.4085 -11.3883 0.264434 0.197955 -11.1132 0.133229 0.00397381 -11.2007 0.0213491 -0.195075 -11.3025 -0.0758686 -0.379782 -11.4401 -0.196384 -0.563172 -11.5598 -0.315562 -0.741795 -11.6879 -0.450495 -0.930069 -11.7819 -0.618115 -1.09689 -11.863 -0.753282 -1.27432 -11.9759 -0.87057 -1.43466 -12.1277 -0.879313 -1.44668 -12.1393 0.332426 0.131887 -11.7556 0.256228 -0.0964669 -11.823 0.185063 -0.323468 -11.8999 0.0975414 -0.543207 -11.9809 0.00798098 -0.762437 -12.061 -0.106163 -0.970477 -12.1396 -0.226041 -1.1525 -12.2621 -0.323958 -1.34992 -12.3802 -0.458655 -1.50813 -12.5192 -0.475033 -1.53074 -12.5368 0.308246 0.0654453 -12.4005 0.141231 0.23357 -12.4801 -0.00501727 0.409455 -12.581 -0.128225 0.59139 -12.7002 -0.238105 0.7631 -12.8449 -0.371713 0.901438 -13.0046 -0.480413 1.05498 -13.1693 -0.581378 1.21571 -13.332 -0.599513 1.24353 -13.3621 0.235231 -0.019045 -13.0402 0.117115 0.177208 -13.1404 0.0309955 0.387578 -13.2444 -0.0634883 0.589293 -13.3579 -0.140574 0.808575 -13.45 -0.1785 1.0378 -13.5423 -0.215916 1.26749 -13.6336 -0.228339 1.31405 -13.6588 0.270787 -0.0979061 -13.6828 0.40651 0.0911022 -13.7742 0.54343 0.279383 -13.8653 0.678387 0.466538 -13.9616 0.820098 0.645686 -14.0632 1.01512 0.778906 -14.1451 1.06353 0.811117 -14.1652 0.231788 -0.164809 -14.3281 0.329453 -0.38235 -14.4032 0.43641 -0.599679 -14.4651 0.541995 -0.817866 -14.5263 0.618934 -1.05465 -14.5489 0.641134 -1.11615 -14.5598 0.270162 -0.14527 -14.9748 0.196989 0.0801479 -15.0544 0.176068 0.311604 -15.1466 0.160046 0.535687 -15.2562 0.157446 0.597848 -15.2852 0.317343 -0.119205 -15.6223 0.210861 -0.320315 -15.7258 0.0755488 -0.512179 -15.8117 0.0405307 -0.565796 -15.8361 0.35386 -0.0669365 -16.2687 0.18604 -0.191884 -16.4055 0.141818 -0.225043 -16.4415 0.414362 -0.0149741 -16.9137 0.459951 -0.0508624 -16.932 
</DataArray>
</Points>
<Lines>
<DataArray type="Int32" Name="connectivity" NumberOfComponents="1" format="ascii" >
0 1 2 3 4 5 6 7 8 9 10 11 12 13 14 15 16 17 18 19 20 21 22 23 24 25 26 27 28 29 30 31 32 33 34 35 36 37 38 39 40 41 42 43 44 45 46 47 48 49 50 51 52 53 54 55 56 57 58 59 60 61 62 63 64 65 66 67 68 69 70 71 72 73 74 75 76 77 78 79 80 81 82 83 84 85 86 87 88 89 90 91 92 93 94 95 96 97 98 99 100 101 102 103 104 105 106 107 108 109 110 111 112 113 114 115 116 117 118 119 120 121 122 123 124 125 126 127 128 129 130 131 132 133 134 135 136 137 138 139 140 141 142 143 144 145 146 147 148 149 150 151 152 153 154 155 156 157 158 159 160 161 162 163 164 165 166 167 168 169 170 171 172 173 174 175 176 177 178 179 180 181 182 183 184 185 186 187 188 189 190 191 192 193 194 195 196 197 198 199 200 201 202 203 204 205 206 207 208 209 210 211 212 213 214 215 216 217 218 219 220 221 222 223 224 225 226 227 228 229 230 231 232 233 234 235 236 237 238 239 240 241 242 243 244 245 246 247 248 249 250 251 252 253 254 255 256 257 258 259 260 261 262 263 264 265 266 267 268 269 270 271 272 273 274 275 276 277 278 279 280 281 282 283 284 285 286 287 288 289 290 291 292 293 294 295 296 297 298 299 300 301 302 303 304 305 306 307 308 309 310 311 312 313 314 315 
</DataArray>
<DataArray type="Int32" Name="offsets" NumberOfComponents="1" format="ascii" >
74 95 115 134 152 169 185 200 214 227 239 251 262 272 281 289 296 302 307 311 314 316 
</DataArray>

</Lines>
</Piece>
</PolyData>
</VTKFile>
