<?xml version="1.0"?><VTKFile type="PolyData" version="0.1" byte_order="LittleEndian">
<PolyData>
<Piece NumberOfLines="15" NumberOfPoints="283">
<PointData Scalars=" PointData">
<DataArray type="Float32" Name="time" NumberOfComponents="1" format="ascii" >
0 0.179048 0.360093 0.38232 0.42426 0.454716 0.49642 0.532429 0.567825 0.60794 0.642098 0.680276 0.720989 0.752154 0.781382 0.818397 0.867784 0.907525 0.943323 0.983277 1.01767 1.05403 1.09043 1.12596 1.16572 1.20605 1.2385 1.27459 1.32018 1.35436 1.40181 1.4424 1.48725 1.52748 1.55652 1.59695 1.64021 1.67945 1.72268 1.75864 1.79626 1.82969 1.8706 1.91191 1.95247 1.99485 2.03419 2.0656 2.10916 2.15412 2.19489 2.24262 2.28357 2.31995 2.35759 2.39573 2.43659 2.47087 2.51781 2.55786 2.60562 2.64306 2.69165 2.73426 2.77185 2.818 2.85816 2.90276 2.95405 2.99533 3 0 0.144985 0.266886 0.293908 0.328061 0.35669 0.38299 0.416915 0.445649 0.474236 0.500474 0.524167 0.552378 0.585836 0.618731 0.650679 0.680706 0.713428 0.747054 0.780395 0.809411 0.843246 0.874549 0.901688 0.930131 0.964017 0.996703 1.02836 1.05628 1.08611 1.11757 1.14519 1.17571 1.20596 1.23969 1.26974 1.3018 1.3307 1.36082 1.39028 1.42095 1.44824 1.47957 1.51105 1.54445 1.58215 1.61592 1.64883 1.67903 1.7178 1.75325 1.78699 1.81908 1.84827 1.88533 1.92163 1.95444 1.98947 2.02038 2.04983 2.07705 2.11421 2.14654 2.18104 2.21927 2.25261 2.28303 2.31806 2.3547 2.38857 2.42305 2.4551 2.4922 2.52238 2.55254 2.5861 2.61732 2.65239 2.69103 2.72064 2.7631 2.8002 2.83735 2.8726 2.91077 2.94115 2.97711 3 2.61137 2.75873 2.93319 3 2.64274 2.83615 3 2.68323 2.84324 3 2.75168 2.88971 3 2.78303 2.9227 3 2.81136 2.95584 3 2.8451 3 2.92451 3 2.96277 3 2.99875 3 0.8 0.969678 1.14129 1.16231 1.19902 1.23528 1.27467 1.31313 1.34364 1.37293 1.41179 1.44355 1.47785 1.51404 1.54985 1.58417 1.61512 1.65047 1.68519 1.71733 1.75478 1.7917 1.83141 1.86143 1.89592 1.93401 1.96665 1.99911 2.0411 2.07726 2.12084 2.15699 2.19491 2.22896 2.26423 2.29916 2.33819 2.36976 2.40709 2.44662 2.49166 2.52697 2.56473 2.60772 2.64457 2.68235 2.71896 2.76036 2.81062 2.85128 2.89246 2.932 2.96915 3 1.6 1.75444 1.902 1.93446 1.96931 2.00231 2.03386 2.06258 2.0994 2.13166 2.16243 2.19923 2.22976 2.26058 2.2976 2.33079 2.36299 2.39728 2.42255 2.45276 2.48906 2.51826 2.55303 2.58313 2.61484 2.6502 2.68702 2.72088 2.7544 2.78993 2.82566 2.86061 2.88686 2.91341 2.94687 2.97914 3 2.4 2.63398 2.87052 2.91829 2.9593 3 
</DataArray>

</PointData>
<CellData Scalars=" CellData">
<DataArray type="Float32" Name="radius" NumberOfComponents="1" format="ascii" >
0.0582419 0.0529745 0.00769069 0.00692465 0.00735539 0.00731054 0.0073493 0.00712401 0.00679992 0.00984001 0.0073123 0.00781807 0.0618558 0.0625027 0.0564299 
</DataArray>
<DataArray type="Float32" Name="subType" NumberOfComponents="1" format="ascii" >
1 4 2 2 2 2 2 2 2 2 2 2 4 4 4 
</DataArray>
<DataArray type="Float32" Name="creationTime" NumberOfComponents="1" format="ascii" >
0 0 2.61137 2.64274 2.68323 2.75168 2.78303 2.81136 2.8451 2.92451 2.96277 2.99875 0.8 1.6 2.4 
</DataArray>

</CellData>
<Points>
<DataArray type="Float32" Name="Coordinates" NumberOfComponents="3" format="ascii" >
0 0 -3 -0.313298 0.624495 -3.71544 -0.731316 1.24739 -4.3767 -0.780554 1.32089 -4.46071 -0.868883 1.45196 -4.62745 -0.922884 1.55497 -4.74656 -0.993951 1.67894 -4.92351 -1.05965 1.78462 -5.07483 -1.11684 1.88837 -5.22612 -1.18072 1.99946 -5.40157 -1.24417 2.0804 -5.55486 -1.32031 2.18592 -5.71436 -1.4066 2.28677 -5.88852 -1.47873 2.34751 -6.02666 -1.54936 2.40044 -6.15599 -1.63897 2.46715 -6.31931 -1.77482 2.54565 -6.53077 -1.8674 2.6046 -6.71134 -1.93951 2.65821 -6.87863 -2.02197 2.72185 -7.06264 -2.08676 2.76969 -7.2254 -2.16685 2.78334 -7.39887 -2.24694 2.79696 -7.57212 -2.31456 2.82218 -7.74397 -2.38466 2.81574 -7.93978 -2.45791 2.81122 -8.13708 -2.52469 2.80864 -8.29234 -2.59857 2.80444 -8.46472 -2.69545 2.78901 -8.67974 -2.77872 2.78114 -8.83546 -2.86376 2.72785 -9.05874 -2.94375 2.71177 -9.25095 -3.02951 2.70125 -9.46426 -3.08534 2.69252 -9.66223 -3.12175 2.67726 -9.8052 -3.14213 2.67606 -10.0102 -3.16901 2.65778 -10.2277 -3.19627 2.66755 -10.4245 -3.22721 2.67442 -10.6408 -3.2313 2.68693 -10.8218 -3.23776 2.69843 -11.0106 -3.24162 2.70845 -11.1782 -3.25327 2.72825 -11.3819 -3.27475 2.75319 -11.5857 -3.29431 2.77381 -11.7859 -3.31323 2.79089 -11.9951 -3.33168 2.7703 -12.1883 -3.34889 2.75629 -12.3422 -3.36483 2.73861 -12.556 -3.37708 2.72102 -12.7763 -3.38909 2.70692 -12.9757 -3.40959 2.69624 -13.2084 -3.42651 2.69076 -13.4076 -3.43418 2.68103 -13.5845 -3.44202 2.66675 -13.7668 -3.44699 2.65971 -13.9516 -3.44782 2.61248 -14.1436 -3.44787 2.58049 -14.306 -3.43214 2.53865 -14.5276 -3.45662 2.51432 -14.7168 -3.4671 2.49376 -14.9444 -3.47961 2.50689 -15.1224 -3.50278 2.52247 -15.3522 -3.52473 2.53894 -15.5528 -3.55027 2.55623 -15.7282 -3.62422 2.54951 -15.9334 -3.69746 2.55512 -16.1079 -3.76163 2.54065 -16.3071 -3.79478 2.50043 -16.5419 -3.81067 2.48384 -16.7335 -3.81226 2.48205 -16.7551 0 0 -3 0.165086 0.89308 -3.41851 0.454548 1.49389 -3.91607 0.522052 1.62334 -4.02702 0.608584 1.78659 -4.16603 0.676403 1.91842 -4.29012 0.739099 2.04068 -4.40207 0.80865 2.18663 -4.56294 0.882277 2.29929 -4.70087 0.965205 2.40657 -4.83581 1.0591 2.47808 -4.96528 1.14393 2.53035 -5.08776 1.25118 2.58641 -5.23115 1.38606 2.64412 -5.39775 1.51928 2.68429 -5.56515 1.6473 2.72065 -5.72874 1.76868 2.75609 -5.88074 1.89592 2.77411 -6.05303 2.02686 2.79332 -6.22916 2.15708 2.78343 -6.40355 2.26799 2.77987 -6.55673 2.35938 2.78394 -6.75683 2.4169 2.77296 -6.95124 2.45468 2.73836 -7.11923 2.48454 2.69998 -7.29634 2.52137 2.63838 -7.50249 2.54034 2.55981 -7.69632 2.57573 2.50479 -7.88833 2.59215 2.45915 -8.06014 2.60717 2.41047 -8.24352 2.62374 2.35566 -8.43534 2.61997 2.3089 -8.60436 2.6268 2.26717 -8.79303 2.63557 2.22683 -8.97969 2.65081 2.21043 -9.19115 2.66122 2.20778 -9.37984 2.64101 2.21228 -9.57992 2.62459 2.20563 -9.75991 2.58603 2.22331 -9.94314 2.55552 2.2571 -10.1209 2.52378 2.29222 -10.3056 2.50133 2.30281 -10.473 2.48071 2.31125 -10.6655 2.46047 2.32169 -10.8584 2.43494 2.31412 -11.0623 2.40729 2.307 -11.292 2.4107 2.31666 -11.4984 2.41317 2.32432 -11.6992 2.41288 2.33243 -11.883 2.4058 2.34133 -12.1182 2.39265 2.33464 -12.3325 2.39 2.34089 -12.5362 2.38908 2.34366 -12.7294 2.38257 2.3474 -12.9048 2.36465 2.35995 -13.1259 2.34747 2.3724 -13.3418 2.33291 2.37961 -13.5368 2.32546 2.37898 -13.7449 2.31958 2.37893 -13.9281 2.31083 2.38288 -14.1021 2.31501 2.39169 -14.2625 2.31912 2.40242 -14.481 2.32192 2.41092 -14.6707 2.32414 2.39679 -14.8723 2.32561 2.37909 -15.0948 2.31756 2.38224 -15.2888 2.32965 2.39766 -15.4645 2.36308 2.38955 -15.6646 2.39718 2.38168 -15.8734 2.4274 2.37259 -16.066 2.44188 2.36808 -16.2636 2.44655 2.36493 -16.4473 2.45106 2.36427 -16.6593 2.44106 2.36579 -16.8312 2.42996 2.3519 -17.0018 2.44677 2.33175 -17.1905 2.47202 2.31848 -17.3648 2.48355 2.30151 -17.5618 2.50187 2.27746 -17.7772 2.51261 2.26549 -17.9427 2.52668 2.24312 -18.1789 2.53756 2.22533 -18.3849 2.54875 2.20626 -18.5905 2.56318 2.19164 -18.785 2.585 2.17245 -18.9942 2.60381 2.16571 -19.1608 2.63079 2.15632 -19.3566 2.64318 2.15567 -19.4817 0.676403 1.91842 -4.29012 0.759118 1.87875 -4.32993 0.838816 1.83746 -4.37401 0.866072 1.82418 -4.3887 0.739099 2.04068 -4.40207 0.760964 2.1155 -4.33943 0.770281 2.14617 -4.3129 0.80865 2.18663 -4.56294 0.776438 2.28129 -4.5616 0.744703 2.36965 -4.55525 0.965205 2.40657 -4.83581 1.03465 2.47165 -4.80512 1.08778 2.52 -4.78138 1.0591 2.47808 -4.96528 1.15611 2.45385 -4.96375 1.20634 2.44214 -4.96298 1.14393 2.53035 -5.08776 1.08595 2.55157 -5.16642 1.06943 2.55763 -5.18873 1.25118 2.58641 -5.23115 1.27363 2.67445 -5.2481 1.51928 2.68429 -5.56515 1.50185 2.71122 -5.60785 1.6473 2.72065 -5.72874 1.67013 2.71823 -5.72485 1.76868 2.75609 -5.88074 1.76846 2.75614 -5.88161 0 0 -3 -0.652788 -0.128286 -3.7466 -1.03715 -0.541968 -4.57191 -1.07972 -0.594885 -4.67289 -1.15126 -0.669262 -4.85821 -1.19747 -0.735292 -5.05104 -1.23906 -0.804077 -5.26284 -1.27375 -0.867059 -5.47135 -1.28878 -0.921125 -5.63664 -1.30273 -0.975739 -5.79412 -1.30553 -1.04311 -6.00502 -1.31008 -1.09742 -6.17715 -1.31409 -1.12962 -6.36899 -1.30932 -1.12738 -6.57369 -1.29957 -1.12625 -6.77563 -1.291 -1.13438 -6.96857 -1.28416 -1.14387 -7.14206 -1.2727 -1.15574 -7.33963 -1.26136 -1.18763 -7.53086 -1.24448 -1.21802 -7.70689 -1.24147 -1.24429 -7.91372 -1.22043 -1.26978 -8.11618 -1.18737 -1.29789 -8.33186 -1.16956 -1.3221 -8.49508 -1.1441 -1.33638 -8.68308 -1.13846 -1.34395 -8.89249 -1.15729 -1.35783 -9.07015 -1.16659 -1.35466 -9.24774 -1.16392 -1.33933 -9.47663 -1.16166 -1.30062 -9.66988 -1.16561 -1.24663 -9.9005 -1.17504 -1.20722 -10.0923 -1.1887 -1.16574 -10.2927 -1.20656 -1.11408 -10.4681 -1.22293 -1.06056 -10.6495 -1.26009 -1.0099 -10.8262 -1.30052 -0.94987 -11.0224 -1.33695 -0.900284 -11.1795 -1.38015 -0.84362 -11.3654 -1.42013 -0.779351 -11.5615 -1.46614 -0.70651 -11.7844 -1.49187 -0.652122 -11.9611 -1.54666 -0.594706 -12.1439 -1.60342 -0.519539 -12.3496 -1.68045 -0.442366 -12.5094 -1.738 -0.387114 -12.6904 -1.79115 -0.333051 -12.8659 -1.85101 -0.27397 -13.0645 -1.94003 -0.227112 -13.3054 -2.01392 -0.184582 -13.4978 -2.08201 -0.169588 -13.6987 -2.16655 -0.137017 -13.8811 -2.22762 -0.120587 -14.0611 -2.26398 -0.107738 -14.2145 0 0 -3 0.652569 0.167191 -3.73905 1.13704 0.1336 -4.54977 1.24035 0.125913 -4.72847 1.33376 0.163596 -4.92549 1.42584 0.199218 -5.10962 1.51829 0.22784 -5.28387 1.60126 0.269959 -5.43916 1.71105 0.326389 -5.63511 1.81858 0.374455 -5.79971 1.90965 0.414816 -5.96454 2.01322 0.472684 -6.16129 2.11058 0.532419 -6.31338 2.20502 0.59703 -6.46698 2.31839 0.674782 -6.65077 2.4296 0.741516 -6.80986 2.52462 0.818195 -6.96658 2.61532 0.903086 -7.13714 2.67742 0.957329 -7.26869 2.75155 1.02047 -7.42617 2.84072 1.09655 -7.61463 2.91236 1.15482 -7.76695 2.99225 1.23543 -7.94561 3.05253 1.31143 -8.10049 3.10998 1.4016 -8.26014 3.17118 1.48955 -8.44501 3.23727 1.58437 -8.63451 3.306 1.64505 -8.81627 3.36116 1.70305 -9.00072 3.42215 1.77096 -9.19278 3.47093 1.83614 -9.3898 3.51375 1.89094 -9.58593 3.5438 1.92677 -9.73469 3.57541 1.9587 -9.88553 3.62661 1.99569 -10.0731 3.68623 2.02658 -10.2513 3.71491 2.05134 -10.3682 0 0 -3 -0.384038 0.54996 -3.74166 -0.784054 0.981431 -4.55025 -0.863286 1.06771 -4.71318 -0.93057 1.14713 -4.84995 -0.993842 1.22398 -4.9881 
</DataArray>
</Points>
<Lines>
<DataArray type="Int32" Name="connectivity" NumberOfComponents="1" format="ascii" >
0 1 2 3 4 5 6 7 8 9 10 11 12 13 14 15 16 17 18 19 20 21 22 23 24 25 26 27 28 29 30 31 32 33 34 35 36 37 38 39 40 41 42 43 44 45 46 47 48 49 50 51 52 53 54 55 56 57 58 59 60 61 62 63 64 65 66 67 68 69 70 71 72 73 74 75 76 77 78 79 80 81 82 83 84 85 86 87 88 89 90 91 92 93 94 95 96 97 98 99 100 101 102 103 104 105 106 107 108 109 110 111 112 113 114 115 116 117 118 119 120 121 122 123 124 125 126 127 128 129 130 131 132 133 134 135 136 137 138 139 140 141 142 143 144 145 146 147 148 149 150 151 152 153 154 155 156 157 158 159 160 161 162 163 164 165 166 167 168 169 170 171 172 173 174 175 176 177 178 179 180 181 182 183 184 185 186 187 188 189 190 191 192 193 194 195 196 197 198 199 200 201 202 203 204 205 206 207 208 209 210 211 212 213 214 215 216 217 218 219 220 221 222 223 224 225 226 227 228 229 230 231 232 233 234 235 236 237 238 239 240 241 242 243 244 245 246 247 248 249 250 251 252 253 254 255 256 257 258 259 260 261 262 263 264 265 266 267 268 269 270 271 272 273 274 275 276 277 278 279 280 281 282 
</DataArray>
<DataArray type="Int32" Name="offsets" NumberOfComponents="1" format="ascii" >
71 159 163 166 169 172 175 178 180 182 184 186 240 277 283 
</DataArray>

</Lines>
</Piece>
</PolyData>
</VTKFile>
