<?xml version="1.0"?><VTKFile type="PolyData" version="0.1" byte_order="LittleEndian">
<PolyData>
<Piece NumberOfLines="154" NumberOfPoints="846">
<PointData Scalars=" PointData">
<DataArray type="Float32" Name="time" NumberOfComponents="1" format="ascii" >
0 2.94076 3.47928 4.02066 4.56495 5.11218 5.66237 6.21556 6.77179 7.33108 7.89348 8.459 9.0277 9.59961 10.1748 10.7532 11.3349 11.92 12.5085 13.1004 13.6958 14.2948 14.8972 15.5033 16.113 16.7264 17.3435 17.9645 18.5892 19.2178 19.8503 20.4868 21.1273 21.7719 22.4206 23.0735 23.7306 24.392 25.0577 25.7278 26.4024 27.0815 27.7652 28.4535 29.1465 29.8443 30.5469 31.2544 31.9669 32.6844 33.407 34.1349 34.8679 35.6064 36 10.3993 13.4301 16.7607 20.457 24.6091 29.3456 34.8584 36 10.979 11.5031 12.0321 12.566 13.1049 13.6489 14.1982 14.7527 15.3127 15.8781 16.4493 17.0261 17.6089 18.1976 18.7924 19.3934 20.0009 20.6148 21.2354 21.8627 22.497 23.1384 23.7871 24.4432 25.1068 25.7783 26.4577 27.1452 27.8411 28.5456 29.2588 29.981 30.7124 31.4532 32.2038 32.9643 33.735 34.5163 35.3083 36 18.4282 21.4985 24.9736 28.9764 33.6965 36 19.0254 22.1005 25.5933 29.6353 34.4323 36 19.6289 22.6788 26.0781 29.9174 34.3277 36 20.2388 23.3045 26.762 30.7263 35.3721 36 20.8553 23.8888 27.2286 30.9437 35.1293 36 21.4785 24.5085 27.8362 31.5263 35.6678 36 22.1086 25.1681 28.6027 32.5174 36 22.7456 25.8343 29.3789 33.5378 36 23.3898 26.4331 29.8083 33.5969 36 24.0413 27.0948 30.507 34.3736 36 24.7003 27.7343 31.0762 34.7955 36 25.367 28.4014 31.7449 35.4674 36 26.0415 29.0919 32.4929 36 26.7241 29.7737 33.172 36 27.4148 30.4725 33.9003 36 28.114 31.1614 34.5515 36 28.8219 31.8542 35.1902 36 29.5385 32.6011 36 30.2643 33.3219 36 30.9993 34.0612 36 31.7439 34.7733 36 32.4983 35.5337 36 33.2628 36 34.0376 36 34.823 36 35.6193 36 11.5621 14.6023 17.9666 21.7323 26.0084 30.9552 36 12.1485 15.2051 18.6292 22.5211 27.0293 32.3865 36 12.7383 13.2624 13.7914 14.3253 14.8642 15.4082 15.9574 16.512 17.0719 17.6374 18.2085 18.7854 19.3681 19.9568 20.5517 21.1527 21.7601 22.3741 22.9946 23.622 24.2563 24.8977 25.5464 26.2024 26.8661 27.5376 28.217 28.9045 29.6004 30.3048 31.0181 31.7402 32.4717 33.2125 33.9631 34.7236 35.4943 36 20.1874 23.2316 26.6098 30.4047 34.7336 36 20.7847 23.8315 27.2196 31.0351 35.4018 36 21.3882 24.4394 27.8433 31.6924 36 21.9981 25.071 28.5556 32.5794 36 22.6146 25.6489 28.9917 32.7131 36 23.2378 26.3046 29.7664 33.74 36 23.8678 26.9162 30.3097 34.1368 36 24.5049 27.5635 30.9946 34.9017 36 25.1491 28.1919 31.5653 35.3501 36 25.8006 28.8596 32.2921 36 26.4596 29.549 33.0964 36 27.1263 30.1627 33.513 36 27.8008 30.8519 34.2557 36 28.4834 31.5462 34.9929 36 29.1741 32.2304 35.6528 36 29.8733 32.9329 36 30.5812 33.6311 36 31.2978 34.3401 36 32.0236 35.06 36 32.7586 35.875 36 33.5032 36 34.2576 36 35.0221 36 35.7969 36 13.3316 16.3959 19.8483 23.8016 28.4261 33.9973 36 13.9283 16.9705 20.3418 24.122 28.4243 33.4164 36 14.5286 17.5979 21.0689 25.0628 29.7657 35.4845 36 15.1325 18.1941 21.6366 25.5682 30.1515 35.6461 36 15.74 18.7894 22.1867 26.0218 30.4244 35.5922 36 16.3511 19.4206 22.8923 26.8878 31.5937 36 16.966 20.0326 23.4936 27.4656 32.1261 36 17.5846 20.6255 23.9921 27.7627 32.0476 36 18.2069 18.7313 19.2608 19.7957 20.336 20.8818 21.4333 21.9906 22.5538 23.1231 23.6985 24.2802 24.8683 25.463 26.0644 26.6727 27.2881 27.9107 28.5406 29.1781 29.8233 30.4765 31.1378 31.8074 32.4855 33.1725 33.8684 34.5735 35.2882 36 25.6961 28.7172 32.0134 35.6398 36 26.3002 29.344 32.7211 36 26.9112 29.9528 33.3222 36 27.5293 30.5863 34.0114 36 28.1547 31.221 34.6805 36 28.7876 31.8466 35.2793 36 29.4281 32.466 35.822 36 30.0764 33.1287 36 30.7327 33.7895 36 31.3972 34.4756 36 32.0701 35.1084 36 32.7516 35.8014 36 33.442 36 34.1415 36 34.8503 36 35.5687 36 18.8332 21.8952 25.3392 29.2742 33.8638 36 19.4633 19.9872 20.5154 21.0481 21.5853 22.127 22.6734 23.2245 23.7805 24.3413 24.9072 25.4781 26.0542 26.6356 27.2223 27.8145 28.4123 29.0157 29.6249 30.24 30.8611 31.4883 32.1218 32.7617 33.408 34.061 34.7208 35.3875 36 26.8631 29.9085 33.2912 36 27.4519 30.4655 33.7353 36 28.0463 31.1386 34.6971 36 28.6462 31.6956 35.0928 36 29.2519 32.318 35.7771 36 29.8634 32.9243 36 30.4808 33.533 36 31.1043 34.1532 36 31.7339 34.8031 36 32.3699 35.4251 36 33.0123 36 33.6612 36 34.3168 36 34.9792 36 35.6487 36 20.0974 20.6212 21.1494 21.682 22.219 22.7606 23.3068 23.8577 24.4133 24.9738 25.5393 26.1098 26.6854 27.2662 27.8524 28.4439 29.0409 29.6436 30.252 30.8662 31.4863 32.1125 32.7449 33.3836 34.0287 34.6804 35.3387 36 27.4935 30.5338 33.8984 36 28.0817 31.1491 34.613 36 28.6754 31.7416 35.2008 36 29.2746 32.321 35.7074 36 29.8795 32.911 36 30.4901 33.5113 36 31.1066 34.1579 36 31.7291 34.773 36 32.3577 35.4351 36 32.9925 36 33.6337 36 34.2814 36 34.9356 36 35.5966 36 20.7354 23.7988 27.2476 31.193 35.8025 36 21.3775 24.4373 27.873 31.7901 36 22.0237 25.0978 28.5872 32.6216 36 22.674 25.7037 29.0304 32.7187 36 23.3285 23.8527 24.3818 24.9159 25.4551 25.9996 26.5494 27.1045 27.6653 28.2316 28.8038 29.3817 29.9657 30.5559 31.1522 31.755 32.3643 32.9802 33.603 34.2327 34.8695 35.5137 36 30.787 33.8164 36 31.3859 34.4214 36 31.9911 35.0298 36 32.603 35.6579 36 33.2216 36 33.847 36 34.4795 36 35.1192 36 35.7662 36 23.9873 27.0486 30.4899 34.4191 36 24.6503 27.6947 31.0736 34.87 36 25.3178 25.8418 26.3704 26.9038 27.4419 27.9849 28.5329 29.0859 29.6441 30.2075 30.7763 31.3505 31.9303 32.5158 33.107 33.7041 34.3072 34.9164 35.5319 36 32.745 35.7842 36 33.3385 36 33.9379 36 34.5434 36 35.155 36 35.773 36 25.9896 29.0438 32.4587 36 26.666 29.7028 33.0549 36 27.3468 27.8708 28.3993 28.9323 29.47 30.0125 30.5597 31.1119 31.6691 32.2314 32.7989 33.3716 33.9498 34.5334 35.1226 35.7175 36 34.7619 36 35.3533 36 35.9504 36 28.0323 31.0676 34.4142 36 28.7224 29.2467 29.776 30.3105 30.8502 31.3954 31.946 32.5022 33.0641 33.6319 34.2056 34.7853 35.3713 35.9637 36 29.4173 32.4828 35.9398 36 30.1169 30.6413 31.1711 31.7064 32.2473 32.7939 33.3464 33.9048 34.4694 35.0402 35.6174 36 30.8215 33.8866 36 31.5309 34.6119 36 32.2453 32.7696 33.2989 33.8334 34.3731 34.9182 35.4689 36 32.9648 33.489 34.0183 34.5526 35.0922 35.6371 36 33.6895 36 34.4193 36 35.1545 36 35.895 36 
</DataArray>

</PointData>
<CellData Scalars=" CellData">
<DataArray type="Float32" Name="radius" NumberOfComponents="1" format="ascii" >
0.0115 0.008 0.0115 0.008 0.008 0.008 0.008 0.008 0.008 0.008 0.008 0.008 0.008 0.008 0.008 0.008 0.008 0.008 0.008 0.008 0.008 0.008 0.008 0.008 0.008 0.008 0.008 0.008 0.008 0.008 0.008 0.0115 0.008 0.008 0.008 0.008 0.008 0.008 0.008 0.008 0.008 0.008 0.008 0.008 0.008 0.008 0.008 0.008 0.008 0.008 0.008 0.008 0.008 0.008 0.008 0.008 0.008 0.008 0.008 0.008 0.008 0.008 0.008 0.008 0.0115 0.008 0.008 0.008 0.008 0.008 0.008 0.008 0.008 0.008 0.008 0.008 0.008 0.008 0.008 0.008 0.008 0.008 0.0115 0.008 0.008 0.008 0.008 0.008 0.008 0.008 0.008 0.008 0.008 0.008 0.008 0.008 0.008 0.008 0.0115 0.008 0.008 0.008 0.008 0.008 0.008 0.008 0.008 0.008 0.008 0.008 0.008 0.008 0.008 0.008 0.008 0.008 0.008 0.0115 0.008 0.008 0.008 0.008 0.008 0.008 0.008 0.008 0.008 0.008 0.008 0.0115 0.008 0.008 0.008 0.008 0.008 0.008 0.008 0.008 0.0115 0.008 0.008 0.008 0.008 0.0115 0.008 0.0115 0.008 0.008 0.0115 0.0115 0.008 0.008 0.008 0.0115 
</DataArray>
<DataArray type="Float32" Name="subType" NumberOfComponents="1" format="ascii" >
1 3 2 3 3 3 3 3 3 3 3 3 3 3 3 3 3 3 3 3 3 3 3 3 3 3 3 3 3 3 3 2 3 3 3 3 3 3 3 3 3 3 3 3 3 3 3 3 3 3 3 3 3 3 3 3 3 3 3 3 3 3 3 3 2 3 3 3 3 3 3 3 3 3 3 3 3 3 3 3 3 3 2 3 3 3 3 3 3 3 3 3 3 3 3 3 3 3 2 3 3 3 3 3 3 3 3 3 3 3 3 3 3 3 3 3 3 2 3 3 3 3 3 3 3 3 3 3 3 2 3 3 3 3 3 3 3 3 2 3 3 3 3 2 3 2 3 3 2 2 3 3 3 2 
</DataArray>
<DataArray type="Float32" Name="creationTime" NumberOfComponents="1" format="ascii" >
0 10.3993 10.979 18.4282 19.0254 19.6289 20.2388 20.8553 21.4785 22.1086 22.7456 23.3898 24.0413 24.7003 25.367 26.0415 26.7241 27.4148 28.114 28.8219 29.5385 30.2643 30.9993 31.7439 32.4983 33.2628 34.0376 34.823 35.6193 11.5621 12.1485 12.7383 20.1874 20.7847 21.3882 21.9981 22.6146 23.2378 23.8678 24.5049 25.1491 25.8006 26.4596 27.1263 27.8008 28.4834 29.1741 29.8733 30.5812 31.2978 32.0236 32.7586 33.5032 34.2576 35.0221 35.7969 13.3316 13.9283 14.5286 15.1325 15.74 16.3511 16.966 17.5846 18.2069 25.6961 26.3002 26.9112 27.5293 28.1547 28.7876 29.4281 30.0764 30.7327 31.3972 32.0701 32.7516 33.442 34.1415 34.8503 35.5687 18.8332 19.4633 26.8631 27.4519 28.0463 28.6462 29.2519 29.8634 30.4808 31.1043 31.7339 32.3699 33.0123 33.6612 34.3168 34.9792 35.6487 20.0974 27.4935 28.0817 28.6754 29.2746 29.8795 30.4901 31.1066 31.7291 32.3577 32.9925 33.6337 34.2814 34.9356 35.5966 20.7354 21.3775 22.0237 22.674 23.3285 30.787 31.3859 31.9911 32.603 33.2216 33.847 34.4795 35.1192 35.7662 23.9873 24.6503 25.3178 32.745 33.3385 33.9379 34.5434 35.155 35.773 25.9896 26.666 27.3468 34.7619 35.3533 35.9504 28.0323 28.7224 29.4173 30.1169 30.8215 31.5309 32.2453 32.9648 33.6895 34.4193 35.1545 35.895 
</DataArray>

</CellData>
<Points>
<DataArray type="Float32" Name="Coordinates" NumberOfComponents="3" format="ascii" >
0 0 -3 0.0152795 -0.0126528 -3.9998 0.0171868 -0.00640123 -4.17968 0.0204128 -0.00394854 -4.35964 0.0244813 0.00264401 -4.53947 0.0241452 0.0144449 -4.71908 0.0213742 0.0159159 -4.89906 0.00929569 0.0124199 -5.07862 -0.00185311 0.00957674 -5.25825 -0.0109642 0.00644542 -5.43799 -0.018661 0.00459279 -5.61782 -0.0260963 0.00412142 -5.79766 -0.0319507 0.00833464 -5.97752 -0.0376868 0.0120558 -6.15739 -0.0424502 0.0180742 -6.33722 -0.0466156 0.0228994 -6.51711 -0.0520426 0.0271658 -6.69698 -0.056191 0.0309799 -6.87689 -0.0571001 0.0335539 -7.05687 -0.0645326 0.0364519 -7.23669 -0.0716371 0.0382731 -7.41654 -0.0767291 0.0440157 -7.59638 -0.0820023 0.0497068 -7.77621 -0.0837707 0.0612495 -7.95583 -0.0856986 0.0726471 -8.13546 -0.0857796 0.0821652 -8.31521 -0.0859959 0.0916508 -8.49496 -0.0924143 0.101064 -8.6746 -0.0975808 0.100598 -8.85452 -0.0927702 0.104371 -9.03442 -0.0878628 0.109007 -9.21429 -0.101773 0.126219 -9.39293 -0.119032 0.144443 -9.57117 -0.135669 0.159596 -9.74976 -0.1611 0.171104 -9.92758 -0.177573 0.184016 -10.1064 -0.192649 0.196284 -10.2853 -0.204484 0.208111 -10.4645 -0.216342 0.221257 -10.6437 -0.22707 0.234198 -10.8229 -0.237066 0.247508 -11.0021 -0.242439 0.266349 -11.181 -0.246336 0.28423 -11.3601 -0.261689 0.308146 -11.5378 -0.277611 0.32693 -11.7161 -0.30234 0.347448 -11.8933 -0.330609 0.367894 -12.0698 -0.36313 0.383565 -12.2462 -0.393156 0.401418 -12.4228 -0.43433 0.433869 -12.595 -0.47405 0.465477 -12.7677 -0.513594 0.497148 -12.9404 -0.559421 0.524701 -13.1122 -0.608499 0.532334 -13.2853 -0.633281 0.535178 -13.3774 0.0152795 -0.0126528 -3.9998 0.92302 -0.199725 -4.37532 1.74152 0.0186038 -4.90672 2.63516 0.168191 -5.32985 3.46447 0.543439 -5.74389 4.30377 0.778498 -6.23412 5.2786 0.854769 -6.44361 5.45276 0.890029 -6.50318 0.0171868 -0.00640123 -4.17968 -0.135598 0.0627491 -4.24507 -0.288706 0.134927 -4.30629 -0.438049 0.209237 -4.37393 -0.599588 0.259726 -4.43521 -0.759702 0.316955 -4.49428 -0.916087 0.394668 -4.53791 -1.07035 0.473452 -4.58687 -1.233 0.514379 -4.65221 -1.39545 0.54445 -4.72367 -1.55916 0.569289 -4.79426 -1.71554 0.629538 -4.85995 -1.8716 0.691098 -4.92518 -2.02675 0.756024 -4.98931 -2.18081 0.818084 -5.05869 -2.33698 0.876398 -5.1266 -2.49912 0.929339 -5.18411 -2.67014 0.948959 -5.23672 -2.84155 0.95793 -5.29092 -3.01688 0.962169 -5.33144 -3.18524 0.969773 -5.39465 -3.35222 0.986 -5.45988 -3.51646 1.01249 -5.52861 -3.67723 1.04465 -5.6029 -3.84206 1.05679 -5.6742 -4.00175 1.08077 -5.75371 -4.16279 1.10441 -5.83058 -4.32377 1.1262 -5.90811 -4.4843 1.14104 -5.98818 -4.64357 1.15253 -6.07125 -4.79952 1.14987 -6.16109 -4.95506 1.14711 -6.25165 -5.1154 1.14901 -6.33342 -5.27782 1.15434 -6.41081 -5.44214 1.15405 -6.4843 -5.60677 1.15159 -6.55704 -5.76509 1.14003 -6.6419 -5.92469 1.13399 -6.72492 -6.08106 1.1392 -6.8139 -6.22753 1.14018 -6.86516 0.0171868 -0.00640123 -4.17968 -0.595234 0.00754134 -3.38928 -1.12506 0.459293 -2.6715 -1.76353 0.733479 -1.95235 -2.40754 1.0737 -1.26714 -2.53034 1.05249 -0.858934 -0.135598 0.0627491 -4.24507 -0.734281 -0.692489 -4.51189 -1.38374 -1.4092 -4.76591 -1.93953 -2.03262 -5.31586 -2.64717 -2.66989 -5.62105 -2.83254 -2.86746 -5.72004 -0.288706 0.134927 -4.30629 -0.529005 -0.421504 -5.10168 -0.634716 -0.83731 -6.00497 -0.462138 -1.3567 -6.8419 -0.443553 -1.917 -7.66998 -0.411222 -2.20147 -7.85708 -0.438049 0.209237 -4.37393 -0.549244 -0.144019 -5.30282 -0.664599 -0.495033 -6.23206 -0.889468 -0.778909 -7.16418 -0.938493 -1.15133 -8.09095 -0.966572 -1.20142 -8.19913 -0.599588 0.259726 -4.43521 -1.16864 -0.516127 -4.70766 -1.74931 -1.02548 -5.34279 -2.56621 -1.1188 -5.91197 -3.29721 -1.14362 -6.5939 -3.4259 -1.08961 -6.72663 -0.759702 0.316955 -4.49428 -0.853218 1.11468 -5.09 -0.71961 1.89945 -5.69522 -0.629945 2.73473 -6.23769 -0.401422 3.21577 -7.08408 -0.387173 3.24943 -7.14962 -0.916087 0.394668 -4.53791 -0.862635 1.27872 -4.07359 -1.09682 2.24677 -3.98395 -1.16306 3.20776 -3.71543 -1.41785 3.84325 -3.34267 -1.07035 0.473452 -4.58687 -0.979314 1.11522 -5.34835 -0.723366 1.80825 -6.0223 -0.491082 2.54181 -6.66099 -0.495439 2.89427 -7.0371 -1.233 0.514379 -4.65221 -1.50678 -0.130099 -5.36614 -2.00665 -0.783635 -5.93449 -2.53481 -1.37939 -6.53957 -2.75671 -1.70766 -6.95452 -1.39545 0.54445 -4.72367 -2.06793 0.614833 -3.98691 -2.67121 0.518475 -3.19522 -3.12928 0.517406 -2.30631 -3.31795 0.5388 -1.97428 -1.55916 0.569289 -4.79426 -1.99689 -0.327307 -4.72713 -2.51246 -1.18291 -4.68089 -3.03831 -2.03229 -4.63596 -3.19756 -2.28691 -4.62931 -1.71554 0.629538 -4.85995 -1.58961 1.02874 -5.76812 -1.4139 1.42227 -6.67048 -1.15792 1.98777 -7.4545 -1.13741 2.0536 -7.56946 -1.8716 0.691098 -4.92518 -2.50116 0.625015 -4.15104 -2.67666 0.543683 -3.16993 -2.89953 0.452502 -2.28439 -2.02675 0.756024 -4.98931 -2.7203 0.921516 -4.28817 -2.83026 1.79767 -3.81885 -3.14961 2.41807 -3.54547 -2.18081 0.818084 -5.05869 -2.00793 1.66483 -5.56182 -1.80762 2.41248 -6.19498 -1.75798 2.86566 -6.51227 -2.33698 0.876398 -5.1266 -2.49271 1.69914 -4.57993 -2.66931 2.55982 -4.1024 -2.75669 2.90765 -3.93883 -2.49912 0.929339 -5.18411 -2.96032 1.16127 -4.32767 -3.77454 1.18864 -3.74776 -3.92357 1.24684 -3.58529 -2.67014 0.948959 -5.23672 -2.57937 1.36394 -6.14201 -2.72302 1.69832 -7.05969 -2.84155 0.95793 -5.29092 -2.98887 1.14217 -6.2627 -3.0732 1.2087 -7.04689 -3.01688 0.962169 -5.33144 -3.20713 0.801041 -6.29986 -3.2062 0.569303 -6.82977 -3.18524 0.969773 -5.39465 -3.76533 1.4883 -4.76645 -3.97945 1.68983 -4.52525 -3.35222 0.986 -5.45988 -3.29936 1.08192 -6.45387 -3.26727 1.09535 -6.5952 -3.51646 1.01249 -5.52861 -4.04101 0.339297 -5.24382 -3.67723 1.04465 -5.6029 -4.2572 1.10053 -5.30157 -3.84206 1.05679 -5.6742 -4.05774 0.736983 -5.57332 -4.00175 1.08077 -5.75371 -4.06985 0.971886 -5.77681 0.0204128 -0.00394854 -4.35964 -0.894767 -0.0977268 -4.75162 -1.78419 -0.427712 -5.06791 -2.77023 -0.593451 -5.08407 -3.71112 -0.916615 -4.98265 -4.68505 -1.09023 -4.83663 -5.49518 -1.35668 -4.6612 0.0244813 0.00264401 -4.53947 -0.247025 -0.9587 -4.58532 -0.720058 -1.75329 -4.96593 -0.958594 -2.24582 -5.8029 -1.19642 -2.71444 -6.65368 -1.3464 -3.17058 -7.53086 -1.41976 -3.44075 -8.03412 0.0241452 0.0144449 -4.71908 0.186474 -0.0356486 -4.77858 0.349075 -0.0847516 -4.83816 0.503991 -0.153944 -4.89827 0.659617 -0.218305 -4.96182 0.810356 -0.286088 -5.03312 0.97154 -0.326978 -5.10202 1.133 -0.359229 -5.17477 1.29513 -0.379988 -5.25015 1.45689 -0.414188 -5.32131 1.62645 -0.440159 -5.37585 1.79708 -0.459195 -5.42991 1.96819 -0.477075 -5.48285 2.14402 -0.481886 -5.52105 2.31804 -0.455247 -5.55856 2.48619 -0.448766 -5.62246 2.65096 -0.433233 -5.69324 2.82275 -0.414745 -5.74371 2.99157 -0.400027 -5.80439 3.15385 -0.397777 -5.88224 3.31263 -0.405916 -5.96664 3.46044 -0.420257 -6.06835 3.60115 -0.440243 -6.17882 3.74878 -0.457543 -6.28034 3.9127 -0.481687 -6.35068 4.06363 -0.513984 -6.44328 4.22705 -0.540272 -6.51403 4.39032 -0.566632 -6.58507 4.55428 -0.594187 -6.65406 4.71195 -0.620552 -6.73679 4.86608 -0.655762 -6.82284 5.03049 -0.679248 -6.89224 5.19419 -0.701676 -6.96364 5.35347 -0.733211 -7.04134 5.51289 -0.755976 -7.12176 5.66994 -0.806192 -7.19395 5.827 -0.856407 -7.26614 5.92992 -0.88713 -7.31202 0.0241452 0.0144449 -4.71908 0.424567 -0.529369 -3.98157 0.869066 -1.06867 -3.26633 1.27314 -1.8904 -2.86447 1.69363 -2.66114 -2.38578 1.79297 -2.87828 -2.26646 0.186474 -0.0356486 -4.77858 0.549739 0.604546 -5.45548 0.859773 1.28258 -6.12193 1.14551 1.90501 -6.85058 1.39736 2.54339 -7.57793 1.427 2.63413 -7.66032 0.349075 -0.0847516 -4.83816 0.247218 -0.161628 -5.82999 0.320962 -0.375781 -6.804 0.520645 -0.666595 -7.73971 0.459193 -1.03352 -8.64057 0.503991 -0.153944 -4.89827 0.543215 0.572588 -5.58429 0.534182 1.47485 -6.01539 0.366458 2.001 -6.84907 0.440052 2.38591 -7.47285 0.659617 -0.218305 -4.96182 0.399834 -0.468406 -5.89454 -0.000978473 -0.588649 -6.80277 -0.472336 -0.849106 -7.64538 -0.711714 -1.13653 -8.34565 0.810356 -0.286088 -5.03312 0.638626 -0.663537 -5.94309 0.649311 -0.491828 -6.92818 0.262572 -0.588227 -7.84531 0.223261 -0.730402 -8.32959 0.97154 -0.326978 -5.10202 1.33632 -0.333882 -6.03309 1.6881 -0.469219 -6.95934 1.77462 -0.154268 -7.90449 1.68526 -0.0343831 -8.32102 1.133 -0.359229 -5.17477 1.22963 -1.34294 -5.32633 1.23896 -2.28347 -5.66592 1.15785 -3.23815 -5.95228 1.12199 -3.47656 -6.04139 1.29513 -0.379988 -5.25015 1.90268 -1.09311 -4.90039 2.53529 -1.59453 -4.31015 3.1674 -2.10266 -3.72513 3.26058 -2.19436 -3.63327 1.45689 -0.414188 -5.32131 2.21125 -0.355012 -4.66753 2.84896 -0.270274 -3.90192 3.44109 -0.114118 -3.17354 1.62645 -0.440159 -5.37585 1.84498 -1.16028 -4.71731 2.18816 -1.7331 -3.97293 2.42129 -2.19488 -3.47904 1.79708 -0.459195 -5.42991 2.10958 -0.414299 -4.48105 2.46281 -0.271203 -3.55652 2.72806 0.00101567 -2.99475 1.96819 -0.477075 -5.48285 2.27593 0.420007 -5.79992 2.33855 1.38776 -6.0439 2.3666 1.82428 -6.21433 2.14402 -0.481886 -5.52105 2.43108 -1.43234 -5.64035 2.52419 -2.36061 -6.00042 2.59758 -2.61522 -6.04857 2.31804 -0.455247 -5.55856 2.47861 0.501499 -5.80116 2.78113 1.39367 -6.13659 2.80911 1.4727 -6.18109 2.48619 -0.448766 -5.62246 2.74251 -1.05666 -6.37398 2.96594 -1.59816 -7.05553 2.65096 -0.433233 -5.69324 2.53693 0.00822092 -6.58325 2.50606 0.294122 -7.23115 2.82275 -0.414745 -5.74371 3.24791 -1.20418 -6.18646 3.44348 -1.4921 -6.55352 2.99157 -0.400027 -5.80439 3.25753 -1.29157 -6.17103 3.34616 -1.55157 -6.26718 3.15385 -0.397777 -5.88224 3.37893 0.176722 -6.6692 3.38582 0.195719 -6.70036 3.31263 -0.405916 -5.96664 3.35993 0.189155 -6.53642 3.46044 -0.420257 -6.06835 4.00483 -0.221307 -5.98576 3.60115 -0.440243 -6.17882 3.57976 -0.747656 -6.05741 3.74878 -0.457543 -6.28034 3.80126 -0.466614 -6.23514 0.0213742 0.0159159 -4.89906 -0.106104 -0.954121 -5.10589 -0.482274 -1.85118 -5.33781 -0.392786 -2.6609 -5.91776 -0.252325 -3.60648 -6.21125 -0.0660345 -4.55584 -6.46427 0.0339101 -4.8461 -6.52231 0.00929569 0.0124199 -5.07862 0.917183 -0.0245282 -5.4962 1.86877 -0.0363431 -5.80336 2.84859 0.043773 -5.98649 3.83171 0.107109 -6.15813 4.74253 -0.035786 -6.5454 5.15192 -0.229188 -6.61446 -0.00185311 0.00957674 -5.25825 -0.538061 -0.729626 -5.66576 -1.31522 -1.31582 -5.89467 -1.96654 -1.95333 -6.30621 -2.8482 -2.39976 -6.15331 -3.74026 -2.81078 -5.96547 -3.81369 -2.83923 -5.95136 -0.0109642 0.00644542 -5.43799 0.747276 -0.536771 -5.79853 1.44849 -1.09621 -6.24049 2.16959 -1.61553 -6.69909 2.87007 -2.12249 -7.2014 3.52623 -2.70226 -7.68444 3.56303 -2.73713 -7.71233 -0.018661 0.00459279 -5.61782 0.87323 -0.44678 -5.64597 1.61519 -0.942528 -6.09732 2.42424 -0.877425 -6.68145 3.08565 -1.19195 -7.36234 4.00235 -1.27785 -7.75257 4.06688 -1.28065 -7.78389 -0.0260963 0.00412142 -5.79766 -0.990797 -0.233101 -5.91202 -1.97689 -0.340948 -6.03848 -2.82324 -0.467955 -6.55574 -3.70891 -0.397366 -7.01467 -4.47554 -0.494318 -7.17131 -0.0319507 0.00833464 -5.97752 0.150868 0.936487 -6.30173 0.833496 1.58525 -6.63806 1.13866 2.1399 -7.41217 1.47733 2.62052 -8.22106 1.71302 2.96753 -8.7929 -0.0376868 0.0120558 -6.15739 0.579668 -0.683419 -6.52507 1.12686 -1.29569 -7.09578 1.61657 -1.85704 -7.76291 2.44099 -2.41778 -7.8398 3.1374 -2.82495 -7.90222 -0.0424502 0.0180742 -6.33722 0.0297827 0.17097 -6.39891 0.0928659 0.330298 -6.454 0.155777 0.489554 -6.5095 0.211522 0.650916 -6.56655 0.276026 0.809524 -6.62207 0.343759 0.966198 -6.67922 0.41653 1.11871 -6.74121 0.482216 1.27792 -6.79354 0.547648 1.43897 -6.84027 0.623412 1.59623 -6.88419 0.697926 1.7521 -6.93469 0.772361 1.90802 -6.98517 0.85569 2.05295 -7.05188 0.939332 2.20001 -7.11336 1.02177 2.34641 -7.17794 1.09083 2.50064 -7.23993 1.1584 2.65708 -7.29792 1.21749 2.80969 -7.37287 1.26869 2.96908 -7.43899 1.32359 3.128 -7.50326 1.38288 3.29021 -7.55399 1.47944 3.43387 -7.60338 1.57899 3.57372 -7.65752 1.67375 3.7134 -7.72004 1.76514 3.86007 -7.77042 1.83561 4.01064 -7.83942 1.90788 4.16182 -7.90518 1.97993 4.31919 -7.95459 2.05026 4.47338 -8.00533 -0.0424502 0.0180742 -6.33722 -0.213765 -0.181788 -7.30196 -0.203184 -0.0408083 -8.29191 -0.270527 0.00568937 -9.28856 -0.270368 0.00515698 -9.38253 0.0297827 0.17097 -6.39891 0.787864 0.391755 -5.78526 1.49501 1.0417 -5.50686 2.22887 1.51195 -5.49624 0.0928659 0.330298 -6.454 -0.297815 0.280551 -7.37318 -0.488692 0.339198 -8.35304 -0.622288 0.380575 -9.06082 0.155777 0.489554 -6.5095 0.293678 0.961514 -5.63873 0.171359 1.42909 -4.76328 0.166691 1.65745 -4.28755 0.211522 0.650916 -6.56655 -0.355478 0.958969 -7.3305 -1.00599 1.15148 -8.06519 -1.17632 1.21575 -8.36284 0.276026 0.809524 -6.62207 0.221229 0.855999 -7.61949 0.195715 0.750658 -8.6136 0.190585 0.719615 -8.80595 0.343759 0.966198 -6.67922 0.314111 1.07719 -7.6726 0.255185 1.14678 -8.66843 0.251588 1.15076 -8.71832 0.41653 1.11871 -6.74121 0.745037 0.988751 -7.67673 1.05657 0.708645 -8.41644 0.482216 1.27792 -6.79354 0.666449 1.5693 -7.73223 0.689904 1.83998 -8.33277 0.547648 1.43897 -6.84027 0.737148 1.96443 -6.01082 0.817864 2.18792 -5.62637 0.623412 1.59623 -6.88419 0.276317 2.37549 -6.36239 0.187731 2.59778 -6.22514 0.697926 1.7521 -6.93469 0.930299 2.30232 -6.13265 0.945916 2.33522 -6.08294 0.772361 1.90802 -6.98517 0.66328 2.53972 -6.43275 0.85569 2.05295 -7.05188 0.702502 2.12114 -7.64756 0.939332 2.20001 -7.11336 0.690277 2.4887 -7.18797 1.02177 2.34641 -7.17794 1.16141 2.33629 -7.22522 -0.0466156 0.0228994 -6.51711 0.856034 -0.111089 -6.9261 1.73414 -0.480733 -7.22988 2.59658 -0.794609 -7.62699 3.45912 -1.10729 -8.0248 3.82392 -1.23194 -8.16947 -0.0520426 0.0271658 -6.69698 0.0898481 0.111756 -6.76847 0.235627 0.180808 -6.84835 0.379796 0.254815 -6.9267 0.53146 0.318873 -6.99946 0.692788 0.37712 -7.05406 0.856948 0.435266 -7.09956 1.02154 0.488213 -7.14961 1.18297 0.541912 -7.20842 1.33918 0.603968 -7.27282 1.49544 0.667484 -7.33566 1.65311 0.728221 -7.39771 1.80916 0.790925 -7.46187 1.96064 0.865268 -7.52454 2.1134 0.948048 -7.57156 2.26582 1.03101 -7.61936 2.40789 1.12009 -7.6848 2.55544 1.19727 -7.75315 2.7029 1.27455 -7.82158 2.84808 1.36165 -7.8827 3.00407 1.4362 -7.93281 3.16 1.5152 -7.97577 3.31183 1.59859 -8.02467 3.46317 1.68269 -8.07393 3.61408 1.76829 -8.12186 3.76463 1.85802 -8.16291 3.90847 1.94854 -8.2222 4.06012 2.02232 -8.28511 4.2031 2.09699 -8.31312 -0.0520426 0.0271658 -6.69698 0.504485 0.509281 -6.02034 1.05876 0.9961 -5.34522 1.6634 1.38859 -5.271 0.0898481 0.111756 -6.76847 0.728533 -0.453132 -7.29095 1.14272 -1.34702 -7.46246 1.48465 -1.88569 -7.55319 0.235627 0.180808 -6.84835 0.179739 1.17921 -6.8566 0.112717 2.15262 -7.07566 0.0909323 2.47437 -7.1461 0.379796 0.254815 -6.9267 -0.173253 1.08011 -6.81254 -0.725213 1.907 -6.70489 -0.863294 2.11337 -6.70227 0.53146 0.318873 -6.99946 1.24402 0.147164 -6.31919 1.97724 -0.102465 -5.68667 2.02324 -0.116772 -5.65064 0.692788 0.37712 -7.05406 1.50257 -0.0420468 -6.64351 2.22472 -0.47789 -6.32996 0.856948 0.435266 -7.09956 1.12689 -0.428628 -7.52479 1.4481 -0.988365 -7.87748 1.02154 0.488213 -7.14961 1.34228 0.401892 -8.09284 1.45739 0.375016 -8.63815 1.18297 0.541912 -7.20842 1.40288 1.49451 -6.99818 1.5038 1.83057 -6.91906 1.33918 0.603968 -7.27282 1.39771 -0.257935 -7.77651 1.40992 -0.414109 -7.85804 1.49544 0.667484 -7.33566 1.38184 0.835601 -8.29197 1.65311 0.728221 -7.39771 2.11806 0.151086 -7.63441 1.80916 0.790925 -7.46187 1.87516 0.87022 -8.01862 1.96064 0.865268 -7.52454 2.05885 1.12838 -7.32341 2.1134 0.948048 -7.57156 2.19686 0.939282 -7.48516 -0.056191 0.0309799 -6.87689 -0.0715774 -0.139728 -6.93187 -0.0968323 -0.309995 -6.98451 -0.119822 -0.480442 -7.0376 -0.147383 -0.651107 -7.08774 -0.172803 -0.823963 -7.13104 -0.185538 -0.999644 -7.16811 -0.18708 -1.17194 -7.22017 -0.208515 -1.34767 -7.25274 -0.223327 -1.52281 -7.29158 -0.227863 -1.69506 -7.34361 -0.234112 -1.86921 -7.38869 -0.240753 -2.04365 -7.43258 -0.249967 -2.21803 -7.47627 -0.263296 -2.38846 -7.53261 -0.283436 -2.55514 -7.59753 -0.295394 -2.72616 -7.65238 -0.303721 -2.89788 -7.70569 -0.306191 -3.06706 -7.76711 -0.305942 -3.235 -7.83189 -0.279682 -3.40645 -7.88 -0.245246 -3.58228 -7.8973 -0.199145 -3.75402 -7.92523 -0.184271 -3.92975 -7.96125 -0.168536 -4.10575 -7.99551 -0.15871 -4.28545 -7.99932 -0.127609 -4.46274 -8.00001 -0.0999228 -4.63928 -8.00939 -0.056191 0.0309799 -6.87689 0.811928 -0.386731 -6.60877 1.69031 -0.796051 -6.36198 2.19112 -1.03747 -6.22455 -0.0715774 -0.139728 -6.93187 0.76449 -0.605198 -6.64147 1.55233 -1.16084 -6.37581 1.84648 -1.32138 -6.22961 -0.0968323 -0.309995 -6.98451 -0.774472 -0.336738 -7.71942 -1.50873 -0.336611 -8.39828 -1.66333 -0.289472 -8.53758 -0.119822 -0.480442 -7.0376 0.617571 -1.06993 -6.70781 1.26901 -1.75456 -6.38084 1.32721 -1.80582 -6.35649 -0.147383 -0.651107 -7.08774 0.611351 -0.858431 -7.70527 1.35203 -0.86381 -8.26794 -0.172803 -0.823963 -7.13104 -1.11736 -1.14627 -7.06832 -1.82189 -1.43201 -7.00044 -0.185538 -0.999644 -7.16811 -0.240188 -1.68165 -6.43881 -0.2229 -2.04509 -6.01917 -0.18708 -1.17194 -7.22017 0.567645 -1.58971 -6.71434 0.839965 -1.78533 -6.54416 -0.208515 -1.34767 -7.25274 0.535976 -1.6917 -7.82491 0.663098 -1.75065 -7.92258 -0.223327 -1.52281 -7.29158 0.691231 -1.86678 -7.23017 -0.227863 -1.69506 -7.34361 0.0959082 -2.1635 -6.80491 -0.234112 -1.86921 -7.38869 -0.163642 -2.17319 -6.90359 -0.240753 -2.04365 -7.43258 -0.457991 -2.24686 -7.22702 -0.249967 -2.21803 -7.47627 -0.307116 -2.29107 -7.37397 -0.0571001 0.0335539 -7.05687 0.921107 -0.104185 -7.21224 1.89984 0.079012 -7.30454 2.89051 0.181976 -7.39379 3.83132 0.5178 -7.34791 3.86828 0.530391 -7.34422 -0.0645326 0.0364519 -7.23669 -0.60723 0.799468 -7.58781 -1.14385 1.56506 -7.94265 -1.60953 2.35041 -8.35054 -2.05999 3.06821 -8.73289 -0.0716371 0.0382731 -7.41654 0.640638 -0.572738 -7.76199 1.22141 -1.1309 -8.35458 2.06508 -1.64853 -8.49695 2.75768 -1.86185 -8.46533 -0.0767291 0.0440157 -7.59638 -1.0375 -0.00854197 -7.86869 -1.92269 -0.0239558 -8.33366 -2.75526 -0.119485 -8.8793 -3.42394 -0.196024 -9.31696 -0.0820023 0.0497068 -7.77621 -0.244062 -0.00126529 -7.8357 -0.410911 -0.0268637 -7.8982 -0.57874 -0.0471942 -7.96 -0.738643 -0.0846158 -8.0337 -0.898726 -0.123819 -8.10606 -1.05023 -0.16009 -8.19623 -1.20511 -0.18153 -8.28541 -1.35606 -0.20384 -8.38089 -1.50492 -0.235435 -8.47703 -1.65836 -0.276247 -8.56183 -1.80642 -0.320281 -8.65423 -1.95785 -0.36994 -8.73792 -2.10675 -0.424323 -8.82319 -2.25221 -0.475909 -8.91582 -2.40164 -0.524823 -9.00345 -2.55366 -0.564418 -9.09132 -2.71174 -0.611476 -9.1634 -2.86907 -0.652275 -9.24076 -3.03223 -0.69143 -9.30591 -3.19493 -0.730987 -9.37197 -3.35763 -0.770539 -9.43804 -3.47946 -0.802028 -9.48567 -0.0820023 0.0497068 -7.77621 0.0429782 -0.928141 -7.60831 0.0240957 -1.59422 -7.64901 -0.244062 -0.00126529 -7.8357 -0.199444 -0.917554 -8.23372 -0.123781 -1.34811 -8.44244 -0.410911 -0.0268637 -7.8982 -0.921042 0.613613 -7.32413 -1.06314 0.754838 -7.10117 -0.57874 -0.0471942 -7.96 -1.14475 -0.388544 -7.2096 -1.20537 -0.425427 -7.13148 -0.738643 -0.0846158 -8.0337 -1.35298 -0.390318 -7.42863 -0.898726 -0.123819 -8.10606 -1.00511 -0.337472 -8.77998 -1.05023 -0.16009 -8.19623 -0.95117 -0.328608 -8.66738 -1.20511 -0.18153 -8.28541 -1.39002 -0.0597338 -8.08448 -1.35606 -0.20384 -8.38089 -1.37791 -0.139686 -8.42405 -0.0837707 0.0612495 -7.95583 -1.02194 -0.00298484 -8.29601 -1.9302 -0.0319876 -8.7134 -2.72232 -0.513096 -9.08902 -3.01675 -0.677067 -9.22674 -0.0856986 0.0726471 -8.13546 0.661503 -0.412744 -8.58943 1.50294 -0.42309 -9.12969 2.32586 -0.468305 -9.69604 2.55915 -0.457491 -9.84049 -0.0857796 0.0821652 -8.31521 -0.235213 0.157118 -8.38193 -0.378777 0.23905 -8.45318 -0.525256 0.315117 -8.525 -0.666344 0.397833 -8.60018 -0.813484 0.469648 -8.67496 -0.95968 0.532448 -8.75912 -1.10448 0.593782 -8.8467 -1.25838 0.649252 -8.9218 -1.39575 0.738617 -8.99625 -1.53625 0.818546 -9.07544 -1.67159 0.91023 -9.15078 -1.79696 1.01755 -9.22265 -1.93155 1.11902 -9.28581 -2.06759 1.22121 -9.34455 -2.19863 1.32303 -9.41427 -2.34034 1.42116 -9.46614 -2.48976 1.51307 -9.50647 -2.63682 1.61154 -9.53926 -2.74859 1.68343 -9.56649 -0.0857796 0.0821652 -8.31521 -0.27198 -0.21192 -9.25268 -0.284122 -0.231734 -9.31597 -0.235213 0.157118 -8.38193 -0.236362 0.155379 -9.25456 -0.378777 0.23905 -8.45318 -0.225523 0.761543 -8.86705 -0.525256 0.315117 -8.525 -0.932495 0.103689 -8.35018 -0.666344 0.397833 -8.60018 -0.721077 0.294671 -8.86296 -0.813484 0.469648 -8.67496 -0.869836 0.415926 -8.66981 -0.0859959 0.0916508 -8.49496 -0.842834 -0.318249 -9.00406 -1.67812 -0.757984 -9.33409 -2.44565 -1.17013 -9.62863 -0.0924143 0.101064 -8.6746 0.710526 -0.315471 -9.10096 1.48013 -0.752251 -9.56672 2.08538 -1.05642 -9.98655 -0.0975808 0.100598 -8.85452 -0.220704 0.221358 -8.90608 -0.346769 0.341688 -8.95111 -0.465598 0.46293 -9.01095 -0.590814 0.577014 -9.07182 -0.709159 0.699228 -9.13063 -0.813994 0.828899 -9.19842 -0.908053 0.956867 -9.28313 -1.00875 1.08723 -9.3557 -1.11105 1.21695 -9.42716 -1.22407 1.34089 -9.49248 -1.33904 1.4637 -9.5565 -1.45649 1.58481 -9.61925 -1.57492 1.70476 -9.6824 -1.69284 1.82554 -9.7449 -1.81943 1.92949 -9.81953 -1.87886 1.97795