<?xml version="1.0"?><VTKFile type="PolyData" version="0.1" byte_order="LittleEndian">
<PolyData>
<Piece NumberOfLines="33" NumberOfPoints="259">
<PointData Scalars=" PointData">
<DataArray type="Float32" Name="time" NumberOfComponents="1" format="ascii" >
0 0.211339 0.669815 1.15391 1.63312 2.10717 2.60524 3.10031 3.6065 4.10913 4.6331 5.17115 5.68843 6.20475 6.73823 7.30893 7.87579 8.45213 9.04506 9.63604 10.2678 10.899 11.5129 12.1447 12.7909 13.4636 14.1375 14.8099 15.5022 16.202 16.9175 17.655 18.4199 19.2 20.0074 20.7891 21 1.6473 3.05104 4.62029 6.39936 8.45314 10.8823 13.8552 17.6881 21 2.12414 3.33951 4.69817 6.23849 8.01665 10.1198 12.6938 16.0123 20.6894 21 2.6279 3.76764 5.04176 6.48624 8.15377 10.126 12.5399 15.6519 20.038 21 3.12683 4.28508 5.5799 7.04783 8.74245 10.7467 13.1998 16.3624 20.8197 21 3.62066 4.74506 6 7.42474 9.06943 11.0146 13.3951 16.4639 20.7883 21 4.1398 5.54267 7.11096 8.88894 10.9415 13.3691 16.3402 20.1707 21 4.65611 6.30912 8.15703 10.252 12.6705 15.531 19.0319 21 5.18432 6.36083 7.67604 9.16711 10.8884 12.9243 15.416 18.6284 21 5.70914 6.88664 8.20297 9.69531 11.4181 13.4557 15.9495 19.1646 21 6.25658 7.5236 8.94001 10.5458 12.3996 14.5921 17.2755 20.7351 21 6.81909 8.11463 9.56293 11.2049 13.1003 15.3422 18.0861 21 7.36025 8.8649 10.547 12.4539 14.6553 17.2591 20.4458 21 7.90075 8.95702 10.1378 11.4765 13.0219 14.8497 17.0868 19.9709 21 8.4596 9.58112 10.8349 12.2563 13.8971 15.8379 18.2132 21 9.05786 10.3821 11.8624 13.5407 15.4781 17.7695 20.5741 21 9.65254 10.8056 12.0945 13.5558 15.2428 17.238 19.68 21 10.2576 11.6006 13.1018 14.8038 16.7686 19.0924 21 10.8807 12.1435 13.5553 15.1559 17.0036 19.1889 21 11.5021 12.8174 14.2879 15.9549 17.8793 20.1554 21 12.1671 13.3573 14.6878 16.1963 17.9377 19.9973 21 12.832 14.1362 15.5943 17.2472 19.1555 21 13.4793 14.7099 16.0856 17.6453 19.4458 21 14.1462 15.2592 16.5034 17.914 19.5425 21 14.8288 16.029 17.3706 18.8917 20.6476 21 15.5402 16.7722 18.1494 19.7107 21 16.2536 17.4095 18.7016 20.1665 21 16.9662 18.1715 19.5189 21 17.7007 19.0741 20.6093 21 18.4441 19.7034 21 19.205 20.4282 21 19.9903 21 20.8059 21 
</DataArray>

</PointData>
<CellData Scalars=" CellData">
<DataArray type="Float32" Name="radius" NumberOfComponents="1" format="ascii" >
0.0388418 0.0272101 0.0278283 0.026074 0.0237808 0.0309707 0.0310928 0.0265405 0.026586 0.0358169 0.029361 0.0309521 0.0252267 0.0265704 0.0307151 0.0244179 0.0288229 0.0256007 0.0252837 0.024643 0.0248791 0.0279805 0.0246617 0.0324293 0.0244086 0.0246558 0.0310107 0.0292092 0.031013 0.0266263 0.0287236 0.0288371 0.0283655 
</DataArray>
<DataArray type="Float32" Name="subType" NumberOfComponents="1" format="ascii" >
1 2 2 2 2 2 2 2 2 2 2 2 2 2 2 2 2 2 2 2 2 2 2 2 2 2 2 2 2 2 2 2 2 
</DataArray>
<DataArray type="Float32" Name="creationTime" NumberOfComponents="1" format="ascii" >
0 1.6473 2.12414 2.6279 3.12683 3.62066 4.1398 4.65611 5.18432 5.70914 6.25658 6.81909 7.36025 7.90075 8.4596 9.05786 9.65254 10.2576 10.8807 11.5021 12.1671 12.832 13.4793 14.1462 14.8288 15.5402 16.2536 16.9662 17.7007 18.4441 19.205 19.9903 20.8059 
</DataArray>

</CellData>
<Points>
<DataArray type="Float32" Name="Coordinates" NumberOfComponents="3" format="ascii" >
0 0 -3 -0.0303927 -0.014203 -3.4125 -0.067346 -0.0560172 -4.30043 -0.0639298 -0.0733862 -5.22771 -0.0665776 -0.0834685 -6.13379 -0.0367042 -0.164589 -7.01442 -0.0164863 -0.252444 -7.92744 -0.0516247 -0.338573 -8.82235 -0.0832203 -0.354449 -9.72916 0.00926339 -0.579948 -10.5839 0.112832 -0.641563 -11.4897 0.249757 -0.715317 -12.4014 0.430091 -0.734191 -13.2589 0.604056 -0.773723 -14.1029 0.874166 -0.84428 -14.9361 1.06428 -0.964245 -15.8344 1.32231 -1.0599 -16.6972 1.44447 -1.22538 -17.5802 1.5731 -1.30268 -18.4858 1.47177 -1.44157 -19.3696 1.45364 -1.55836 -20.3088 1.55281 -1.49855 -21.2313 1.49731 -1.53229 -22.1179 1.44623 -1.57719 -23.015 1.412 -1.56663 -23.9185 1.34378 -1.53702 -24.8402 1.28184 -1.50279 -25.7469 1.26515 -1.63359 -26.6281 1.32166 -1.71712 -27.5229 1.47079 -1.91051 -28.3821 1.42047 -2.02665 -29.2689 1.34911 -1.95075 -30.1682 1.25052 -1.95214 -31.0829 1.17535 -1.93932 -31.9985 1.09518 -2.02533 -32.9216 1.17969 -2.1288 -33.7932 1.1836 -2.15237 -34.0267 -0.0303927 -0.014203 -3.4125 0.74591 0.599623 -3.55592 1.68752 0.926494 -3.63675 2.6678 1.12277 -3.65969 3.66161 1.23137 -3.63642 4.65669 1.21457 -3.53882 5.65069 1.18478 -3.43359 6.64484 1.07692 -3.42763 7.30112 1.0689 -3.49983 -0.067346 -0.0560172 -4.30043 -0.780487 0.644571 -4.27583 -1.44726 1.3692 -4.44997 -2.29848 1.84782 -4.66527 -3.05315 2.47401 -4.86111 -3.89828 2.91459 -5.16384 -4.72816 3.29142 -5.5753 -5.49398 3.51289 -6.17901 -6.29615 3.8175 -6.69256 -6.33862 3.83353 -6.72017 -0.0639298 -0.0733862 -5.22771 0.908461 -0.255916 -5.3731 1.85087 -0.442436 -5.65071 2.30358 -0.834356 -6.45162 2.66542 -1.14064 -7.33211 2.79605 -1.49049 -8.25976 2.81064 -1.78443 -9.21548 2.83373 -2.15033 -10.1458 2.92915 -2.45088 -11.0948 2.93809 -2.48467 -11.2614 -0.0665776 -0.0834685 -6.13379 0.487189 0.731608 -6.30407 1.10952 1.46234 -6.58467 1.69043 2.115 -7.07106 2.30995 2.73245 -7.55577 2.93011 3.33839 -8.05401 3.49269 3.95375 -8.60612 4.0838 4.5131 -9.18726 4.75786 5.04704 -9.69771 4.77942 5.06395 -9.71523 -0.0367042 -0.164589 -7.01442 -0.748494 0.537358 -6.9894 -1.43871 1.24988 -6.87588 -2.15362 1.91519 -6.66077 -2.84099 2.6303 -6.53371 -3.5218 3.35981 -6.46818 -4.22034 4.07343 -6.41532 -4.95766 4.73448 -6.27612 -5.72939 5.36315 -6.18017 -5.76048 5.38678 -6.17564 -0.0164863 -0.252444 -7.92744 -0.8601 -0.78522 -7.99427 -1.69426 -1.32002 -8.12906 -2.51832 -1.86829 -8.27165 -3.34579 -2.40705 -8.42983 -4.17372 -2.9451 -8.58805 -5.06913 -3.22755 -8.93224 -5.97381 -3.26286 -9.35686 -6.13804 -3.27029 -9.43292 -0.0516247 -0.338573 -8.82235 -1.04054 -0.454247 -8.91543 -2.02295 -0.611967 -9.01543 -2.88218 -1.11447 -9.11138 -3.72986 -1.63395 -9.21902 -4.48815 -2.2079 -9.52818 -5.23126 -2.68741 -9.99494 -5.57182 -2.8918 -10.2491 -0.0832203 -0.354449 -9.72916 -0.397174 0.572122 -9.93628 -0.820784 1.42034 -10.2542 -1.25954 2.25659 -10.5831 -1.85887 2.94748 -10.9874 -2.52823 3.40775 -11.5706 -3.1649 3.73651 -12.2682 -3.71255 4.02841 -13.0523 -4.00097 4.2522 -13.4953 0.00926339 -0.579948 -10.5839 0.92389 -0.660698 -10.1878 1.8343 -0.667595 -9.77413 2.74382 -0.67421 -9.35853 3.72213 -0.856779 -9.26063 4.71861 -0.940083 -9.27002 5.66686 -0.774887 -9.54118 6.61671 -0.613647 -9.8091 7.0579 -0.535901 -9.88489 0.112832 -0.641563 -11.4897 0.278996 0.313244 -11.2433 0.50482 1.28595 -11.19 1.00644 2.12227 -11.4112 1.48871 2.95615 -11.6796 2.09443 3.65129 -12.0668 2.59836 4.48426 -12.2953 3.09026 5.32036 -12.5382 3.12198 5.37437 -12.5569 0.249757 -0.715317 -12.4014 -0.458348 -1.4182 -12.4687 -1.17348 -2.10511 -12.5981 -1.95807 -2.69051 -12.8024 -2.73087 -3.29167 -13.0059 -3.38372 -3.78691 -13.579 -3.82183 -4.09753 -14.4226 -4.19318 -4.34092 -15.1403 0.430091 -0.734191 -13.2589 0.0604384 -1.6518 -13.405 -0.457721 -2.38664 -13.8426 -0.932222 -3.13434 -14.3072 -1.37185 -3.82473 -14.8817 -1.74832 -4.53037 -15.482 -1.99857 -5.21412 -16.1675 -2.03296 -5.3086 -16.2818 0.604056 -0.773723 -14.1029 1.37077 -1.41104 -14.0255 2.26066 -1.85494 -14.1306 3.13046 -2.34819 -14.143 4.11492 -2.51095 -14.2088 5.08488 -2.74483 -14.2758 6.05429 -2.67518 -14.5112 6.89801 -2.39665 -14.97 7.14755 -2.31802 -15.1012 0.874166 -0.84428 -14.9361 0.250575 -1.62355 -14.9984 -0.360445 -2.37094 -15.2592 -0.822368 -3.21058 -15.5449 -1.42459 -3.8538 -16.0178 -1.99346 -4.35245 -16.6718 -2.4776 -4.83354 -17.4027 -2.89579 -5.3399 -18.0489 1.06428 -0.964245 -15.8344 1.29962 -1.92625 -15.6959 1.60474 -2.87767 -15.737 2.02202 -3.78322 -15.8136 2.47452 -4.6712 -15.8956 2.85897 -5.54057 -16.206 3.37172 -6.37198 -16.4202 3.44082 -6.47844 -16.4609 1.32231 -1.0599 -16.6972 1.76644 -1.95534 -16.7276 2.22608 -2.82698 -16.8978 2.70811 -3.68527 -17.0739 3.35778 -4.4434 -17.1301 3.88563 -5.27502 -17.3027 4.41973 -6.09825 -17.4951 4.69913 -6.44003 -17.6033 1.44447 -1.22538 -17.5802 2.40278 -1.3622 -17.3293 3.36784 -1.50831 -17.1118 4.32846 -1.65431 -16.8754 5.30757 -1.79978 -16.7333 6.28872 -1.94788 -16.6092 6.98105 -2.00609 -16.5909 1.5731 -1.30268 -18.4858 2.36489 -1.86478 -18.7248 3.16734 -2.37866 -19.0281 4.03786 -2.5475 -19.4904 4.77492 -2.46519 -20.1612 5.39296 -2.28484 -20.9264 5.82727 -2.15917 -21.4623 1.47177 -1.44157 -19.3696 1.60083 -0.555025 -19.8139 1.55182 0.32543 -20.2855 1.51719 1.09824 -20.9192 1.5176 1.86991 -21.5552 1.53302 2.5447 -22.293 1.54389 2.75669 -22.5419 1.45364 -1.55836 -20.3088 1.26066 -0.749788 -20.8647 1.09347 0.0350254 -21.4615 0.588517 0.528019 -22.17 0.0622904 1.10585 -22.7938 -0.472776 1.64603 -23.4434 -0.701232 1.87469 -23.7188 1.55281 -1.49855 -21.2313 0.723261 -2.00848 -21.4589 -0.0265996 -2.66215 -21.561 -0.76884 -3.31996 -21.6889 -1.50442 -3.97808 -21.8496 -2.00396 -4.57204 -22.1455 1.49731 -1.53229 -22.1179 2.27732 -2.15795 -22.1066 3.03264 -2.80784 -22.0221 3.82578 -3.41398 -21.9627 4.5907 -4.05521 -21.9017 5.15535 -4.54267 -21.9503 1.44623 -1.57719 -23.015 0.547752 -1.93686 -22.7633 -0.360027 -2.33603 -22.6344 -1.22225 -2.84017 -22.5853 -2.03957 -3.34601 -22.8612 -2.67159 -3.73715 -23.0745 1.412 -1.56663 -23.9185 1.30768 -0.572322 -23.9402 1.23165 0.422795 -24.0032 1.2238 1.42041 -24.0718 1.2633 2.40662 -24.2325 1.2935 2.58425 -24.2633 1.34378 -1.53702 -24.8402 1.78617 -2.42288 -24.98 2.22809 -3.30664 -25.1338 2.90231 -4.02408 -25.3091 3.49025 -4.43657 -25.4441 1.28184 -1.50279 -25.7469 0.294805 -1.3423 -25.7461 -0.645277 -1.08828 -25.9735 -1.58614 -0.829955 -26.1927 -2.06748 -0.709129 -26.3193 1.26515 -1.63359 -26.6281 2.15769 -1.26496 -26.8879 3.02697 -0.869227 -27.1841 3.85923 -0.544961 -27.5662 1.32166 -1.71712 -27.5229 0.903426 -0.831514 -27.7248 0.571826 0.0917734 -27.9187 0.485515 0.30496 -27.9725 1.47079 -1.91051 -28.3821 1.47725 -2.90673 -28.2954 1.49419 -3.82814 -28.2127 1.42047 -2.02665 -29.2689 2.39272 -2.13767 -29.4749 2.81282 -2.19973 -29.5571 1.34911 -1.95075 -30.1682 2.06473 -2.15052 -30.2266 1.25052 -1.95214 -31.0829 1.09641 -2.00206 -31.0897 
</DataArray>
</Points>
<Lines>
<DataArray type="Int32" Name="connectivity" NumberOfComponents="1" format="ascii" >
0 1 2 3 4 5 6 7 8 9 10 11 12 13 14 15 16 17 18 19 20 21 22 23 24 25 26 27 28 29 30 31 32 33 34 35 36 37 38 39 40 41 42 43 44 45 46 47 48 49 50 51 52 53 54 55 56 57 58 59 60 61 62 63 64 65 66 67 68 69 70 71 72 73 74 75 76 77 78 79 80 81 82 83 84 85 86 87 88 89 90 91 92 93 94 95 96 97 98 99 100 101 102 103 104 105 106 107 108 109 110 111 112 113 114 115 116 117 118 119 120 121 122 123 124 125 126 127 128 129 130 131 132 133 134 135 136 137 138 139 140 141 142 143 144 145 146 147 148 149 150 151 152 153 154 155 156 157 158 159 160 161 162 163 164 165 166 167 168 169 170 171 172 173 174 175 176 177 178 179 180 181 182 183 184 185 186 187 188 189 190 191 192 193 194 195 196 197 198 199 200 201 202 203 204 205 206 207 208 209 210 211 212 213 214 215 216 217 218 219 220 221 222 223 224 225 226 227 228 229 230 231 232 233 234 235 236 237 238 239 240 241 242 243 244 245 246 247 248 249 250 251 252 253 254 255 256 257 258 
</DataArray>
<DataArray type="Int32" Name="offsets" NumberOfComponents="1" format="ascii" >
37 46 56 66 76 86 95 103 112 121 130 138 146 155 163 171 179 186 193 200 207 213 219 225 231 236 241 245 249 252 255 257 259 
</DataArray>

</Lines>
</Piece>
</PolyData>
</VTKFile>
