<?xml version="1.0"?><VTKFile type="PolyData" version="0.1" byte_order="LittleEndian">
<PolyData>
<Piece NumberOfLines="1" NumberOfPoints="5">
<PointData Scalars=" PointData">
<DataArray type="Float32" Name="time" NumberOfComponents="1" format="ascii" >
0 0.250348 0.60201 0.955052 1 
</DataArray>

</PointData>
<CellData Scalars=" CellData">
<DataArray type="Float32" Name="radius" NumberOfComponents="1" format="ascii" >
0.13 
</DataArray>
<DataArray type="Float32" Name="subType" NumberOfComponents="1" format="ascii" >
1 
</DataArray>
<DataArray type="Float32" Name="creationTime" NumberOfComponents="1" format="ascii" >
0 
</DataArray>

</CellData>
<Points>
<DataArray type="Float32" Name="Coordinates" NumberOfComponents="3" format="ascii" >
0 0 -3 0.0155571 -0.0043687 -3.49974 0.0507807 0.000115538 -4.19884 0.0510154 -0.0130774 -4.89871 0.0510425 -0.0147693 -4.98762 
</DataArray>
</Points>
<Lines>
<DataArray type="Int32" Name="connectivity" NumberOfComponents="1" format="ascii" >
0 1 2 3 4 
</DataArray>
<DataArray type="Int32" Name="offsets" NumberOfComponents="1" format="ascii" >
5 
</DataArray>

</Lines>
</Piece>
</PolyData>
</VTKFile>
