<?xml version="1.0"?><VTKFile type="PolyData" version="0.1" byte_order="LittleEndian">
<PolyData>
<Piece NumberOfLines="40" NumberOfPoints="369">
<PointData Scalars=" PointData">
<DataArray type="Float32" Name="time" NumberOfComponents="1" format="ascii" >
0 0.49969 0.509567 0.723488 0.970333 1.23251 1.42783 1.59434 1.8416 2.02821 2.24336 2.43418 2.73068 2.95179 3.16091 3.43795 3.63454 3.8665 4.19037 4.49767 4.81755 5.0573 5.31845 5.56811 5.95463 6.23514 6.51531 6.82165 7.10401 7.36123 7.57579 7.89233 8.23234 8.54488 8.82084 9.13618 9.49973 9.8711 10.1268 10.6181 10.9785 11.3174 11.6671 12.06 12.4727 12.83 13.2537 13.6272 14.0624 14.5355 14.8172 15 2.99582 4.42889 5.92895 7.50256 7.67327 8.34211 9.09786 9.76374 10.4908 11.1627 11.976 12.7995 13.6166 14.4557 15 3.23165 4.62685 6.08714 7.48519 8.30688 8.95666 9.6609 10.4231 11.104 11.8807 12.7472 13.5866 14.3115 15 3.50404 4.8642 6.28848 7.16826 7.90154 8.61537 9.28482 9.97691 10.6861 11.5653 12.2621 12.9124 13.7211 14.5729 15 3.79364 5.24862 6.77072 8.36642 8.71284 9.55636 10.3074 11.0417 11.8499 12.861 13.6821 14.5664 15 4.00959 5.35063 6.75379 7.73166 8.47071 9.07176 9.72321 10.4283 10.9564 11.7613 12.5136 13.4274 14.2426 15 4.19383 5.65141 7.17621 8.77473 9.05454 9.71451 10.4527 11.263 12.0294 12.8698 13.8477 14.6454 15 4.46764 5.82905 7.2529 8.67942 9.40956 10.0971 10.7881 11.4667 12.2906 13.0493 13.8448 14.6487 15 4.6745 6.10608 7.60339 9.17274 9.4079 10.1738 10.9121 11.6847 12.4268 13.4416 14.0758 14.851 15 4.91318 6.29591 7.74129 9.25528 9.38228 9.99409 10.7825 11.6371 12.473 13.1907 13.8928 14.6538 15 5.12505 6.57882 8.10174 9.51886 10.1792 10.9333 11.6055 12.3599 13.0794 13.9489 14.6896 15 5.45462 6.88087 8.37429 9.64521 10.4351 11.0912 11.7895 12.5306 13.2543 13.9706 14.6782 15 5.70067 7.12788 8.61883 10.1795 10.4592 11.1411 11.8882 12.6111 13.3993 14.3015 15 5.9336 7.37546 8.88259 10.4612 11.438 12.2628 13.0165 13.8228 14.6437 15 6.24251 7.7928 9.41599 10.5133 11.3557 12.1562 12.9241 13.8835 14.685 15 6.46196 7.96913 9.54572 10.7817 11.3782 12.2141 13.002 13.7665 14.6109 15 6.72113 8.10725 9.55776 11.0789 11.3078 12.1186 12.7679 13.448 14.1462 14.8255 15 7.08348 8.47713 9.93569 11.4582 12.0913 12.859 13.5265 14.2949 15 7.42778 8.82626 10.2892 11.7623 12.503 13.1684 13.8853 14.5171 15 7.78672 9.18769 10.6522 12.1863 12.675 13.3171 14.2213 14.9418 15 8.0561 9.42651 10.8598 12.3619 12.9111 13.6734 14.3388 15 8.34988 9.76703 11.2478 12.798 13.212 13.9841 14.848 15 8.6311 10.0334 11.4989 13.0334 13.6029 14.3019 15 9.06715 10.4521 11.9011 13.1826 13.9725 14.5981 15 9.38414 10.7148 12.1079 13.0665 13.7447 14.4363 15 9.7012 11.1112 12.5867 14.1342 14.3189 15 10.0484 11.4786 12.974 14.541 15 10.3689 11.832 13.3604 14.7985 15 10.6613 12.0496 13.501 15 10.9055 12.357 13.8753 15 11.2664 12.6898 14.1783 15 11.6546 13.0836 14.5746 15 12.0122 13.4359 14.9211 15 12.3284 13.7091 15 12.6904 13.9934 15 13.1085 14.4912 15 13.5365 14.9991 15 13.8318 15 14.4004 15 14.8187 15 
</DataArray>

</PointData>
<CellData Scalars=" CellData">
<DataArray type="Float32" Name="radius" NumberOfComponents="1" format="ascii" >
0.073597 0.0483104 0.051644 0.0517459 0.0587091 0.0456802 0.0510339 0.0549657 0.0509917 0.0439557 0.0544356 0.0452806 0.0490116 0.0563493 0.052833 0.0434974 0.0482047 0.0525513 0.040465 0.0483956 0.053205 0.0496512 0.0419634 0.0455811 0.0489473 0.0492234 0.0479621 0.0500378 0.0518485 0.0513471 0.0527158 0.0501538 0.0471363 0.0566594 0.0472977 0.0555617 0.0490884 0.0487982 0.0443683 0.0535753 
</DataArray>
<DataArray type="Float32" Name="subType" NumberOfComponents="1" format="ascii" >
1 2 2 2 2 2 2 2 2 2 2 2 2 2 2 2 2 2 2 2 2 2 2 2 2 2 2 2 2 2 2 2 2 2 2 2 2 2 2 2 
</DataArray>
<DataArray type="Float32" Name="creationTime" NumberOfComponents="1" format="ascii" >
0 2.99582 3.23165 3.50404 3.79364 4.00959 4.19383 4.46764 4.6745 4.91318 5.12505 5.45462 5.70067 5.9336 6.24251 6.46196 6.72113 7.08348 7.42778 7.78672 8.0561 8.34988 8.6311 9.06715 9.38414 9.7012 10.0484 10.3689 10.6613 10.9055 11.2664 11.6546 12.0122 12.3284 12.6904 13.1085 13.5365 13.8318 14.4004 14.8187 
</DataArray>

</CellData>
<Points>
<DataArray type="Float32" Name="Coordinates" NumberOfComponents="3" format="ascii" >
0 0 -3 -0.0351313 0.0742711 -3.99662 -0.0358811 0.0767392 -4.01602 -0.135058 0.254566 -4.38567 -0.248002 0.452671 -4.811 -0.294358 0.576416 -5.301 -0.326549 0.629895 -5.6705 -0.40484 0.713642 -5.96626 -0.596925 0.768216 -6.38868 -0.78222 0.748572 -6.68456 -0.934675 0.692851 -7.05014 -1.0613 0.636704 -7.37368 -1.30647 0.514112 -7.84091 -1.46206 0.41981 -8.19703 -1.62771 0.273563 -8.50007 -1.80439 0.0978957 -8.92451 -1.94964 0.00470016 -9.22445 -2.11633 -0.0970646 -9.5791 -2.09966 -0.197477 -10.129 -2.19395 -0.291886 -10.6358 -2.21732 -0.421305 -11.1584 -2.25729 -0.533471 -11.5398 -2.30092 -0.655811 -11.9507 -2.34815 -0.771044 -12.3392 -2.37885 -0.948408 -12.9363 -2.43305 -1.02202 -13.3737 -2.45476 -1.08515 -13.81 -2.46837 -1.10302 -14.2866 -2.45535 -1.1283 -14.7204 -2.49293 -1.10894 -15.11 -2.51899 -1.0034 -15.4151 -2.43658 -0.847504 -15.8539 -2.30844 -0.739755 -16.3267 -2.22649 -0.688245 -16.7714 -2.16198 -0.656022 -17.1621 -2.01753 -0.68032 -17.5863 -1.84061 -0.736407 -18.062 -1.70467 -0.716795 -18.5574 -1.579 -0.702193 -18.8834 -1.31738 -0.734084 -19.4908 -1.10377 -0.788172 -19.9147 -0.919732 -0.828645 -20.3157 -0.72447 -0.811043 -20.7221 -0.620945 -0.760079 -21.2082 -0.55139 -0.716807 -21.7182 -0.486364 -0.69357 -22.1533 -0.532302 -0.665139 -22.6649 -0.517707 -0.678189 -23.1111 -0.49041 -0.552414 -23.6068 -0.390476 -0.441851 -24.133 -0.329612 -0.376014 -24.4412 -0.28444 -0.333688 -24.638 -0.0358811 0.0767392 -4.01602 -0.935197 -0.108714 -4.41205 -1.67494 -0.120422 -5.08484 -2.5057 0.116579 -5.5885 -2.58859 0.152788 -5.6429 -2.89163 0.316634 -5.86194 -3.2362 0.522727 -6.06771 -3.52981 0.706922 -6.24386 -3.75825 0.822694 -6.57097 -3.97167 0.859142 -6.87788 -4.31654 0.839338 -7.15721 -4.62498 0.79835 -7.46626 -4.90979 0.772625 -7.77944 -5.18655 0.749572 -8.10044 -5.39573 0.738806 -8.26998 -0.135058 0.254566 -4.38567 0.439812 0.635646 -5.10975 0.690762 1.04504 -5.98692 0.801734 1.40591 -6.82001 0.996699 1.49891 -7.29172 1.11275 1.55623 -7.67099 1.25521 1.608 -8.06809 1.38426 1.68915 -8.49084 1.48891 1.71336 -8.86812 1.64878 1.73741 -9.2743 1.82325 1.75674 -9.71583 2.02888 1.75117 -10.1136 2.22223 1.8114 -10.4319 2.41585 1.88101 -10.7154 -0.248002 0.452671 -4.811 -0.892793 1.15125 -5.12121 -1.44419 1.77499 -5.67521 -1.75366 2.18329 -5.9769 -2.01343 2.52305 -6.20027 -2.25046 2.86165 -6.39894 -2.45814 3.16191 -6.60729 -2.72507 3.41743 -6.817 -2.91117 3.71026 -7.06314 -3.12172 4.05374 -7.38187 -3.26583 4.29874 -7.65852 -3.3794 4.52608 -7.91634 -3.5172 4.65243 -8.31406 -3.46813 4.68293 -8.76068 -3.41476 4.68765 -8.97518 -0.294358 0.576416 -5.301 -0.960302 1.23185 -5.65727 -1.62508 1.80439 -6.13713 -2.12959 2.44416 -6.71693 -2.24074 2.57172 -6.84264 -2.61398 2.84016 -7.04937 -2.93888 3.08036 -7.21878 -3.21859 3.30864 -7.43103 -3.53485 3.60666 -7.54911 -3.91796 3.97405 -7.68561 -4.20926 4.26141 -7.8268 -4.53485 4.5495 -7.95867 -4.69266 4.68246 -8.0301 -0.326549 0.629895 -5.6705 0.133641 -0.013782 -6.28198 0.676058 -0.0886687 -7.11874 1.04453 -0.187108 -7.66962 1.24181 -0.32248 -8.09979 1.38804 -0.466524 -8.43324 1.5175 -0.643751 -8.78629 1.57965 -0.847633 -9.1712 1.64121 -0.962822 -9.46653 1.83017 -1.03617 -9.90319 2.00107 -1.09195 -10.3032 2.1947 -1.08353 -10.7839 2.37496 -1.16238 -11.1878 2.44292 -1.4028 -11.5089 -0.40484 0.713642 -5.96626 -0.80189 -0.0151901 -6.52407 -1.11596 -0.82182 -7.02477 -1.42963 -1.63135 -7.52102 -1.48235 -1.77223 -7.60052 -1.58988 -2.11135 -7.77354 -1.81351 -2.44253 -7.94091 -2.07493 -2.77847 -8.12692 -2.31179 -3.08929 -8.30412 -2.5402 -3.4399 -8.49308 -2.81094 -3.80567 -8.74432 -3.016 -4.16362 -8.76016 -3.0922 -4.32688 -8.75336 -0.596925 0.768216 -6.38868 -0.281546 0.834134 -7.33535 -0.268364 0.707483 -8.32721 -0.202906 0.638284 -9.27938 -0.165348 0.61314 -9.75025 -0.202044 0.575849 -10.1825 -0.258379 0.533431 -10.6046 -0.340466 0.467304 -11.002 -0.436953 0.38869 -11.473 -0.532373 0.313021 -11.8931 -0.631137 0.236452 -12.3225 -0.727616 0.157662 -12.745 -0.770113 0.12501 -12.9262 -0.78222 0.748572 -6.68456 -0.91016 -0.0472466 -7.27643 -0.950826 -0.68673 -8.04416 -0.85044 -1.0871 -8.95499 -0.842135 -1.14371 -9.08904 -0.880808 -1.38198 -9.48935 -0.950498 -1.55263 -9.88925 -1.0426 -1.66898 -10.3144 -1.01551 -1.65585 -10.7358 -1.05749 -1.66031 -11.2967 -1.01194 -1.67456 -11.6361 -0.824667 -1.67613 -12.0009 -0.794327 -1.67624 -12.0724 -0.934675 0.692851 -7.05014 -1.70527 0.276032 -7.53227 -2.47074 -0.190575 -7.97536 -3.22889 -0.303279 -8.61763 -3.28756 -0.312058 -8.67387 -3.54046 -0.289777 -8.96897 -3.84884 -0.321758 -9.3494 -4.1886 -0.271919 -9.73778 -4.51807 -0.268866 -10.1056 -4.75752 -0.14883 -10.4211 -4.94552 -0.167131 -10.769 -5.06321 -0.180921 -11.1713 -5.09437 -0.197126 -11.3555 -1.0613 0.636704 -7.37368 -1.28272 1.33894 -8.05031 -1.44684 2.06528 -8.71777 -1.20367 2.61762 -9.37023 -1.13946 2.8761 -9.66989 -1.12149 3.16745 -10.0095 -1.10463 3.42554 -10.3019 -1.16553 3.73919 -10.5874 -1.18609 4.02309 -10.8676 -1.14657 4.32704 -11.2249 -1.14987 4.49518 -11.578 -1.16079 4.58558 -11.711 -1.30647 0.514112 -7.84091 -2.25906 0.773867 -7.99934 -3.24437 0.690567 -8.14844 -4.04571 0.626271 -8.28053 -4.53247 0.573851 -8.30448 -4.91262 0.614108 -8.41496 -5.30992 0.665726 -8.52148 -5.67579 0.724913 -8.73978 -6.01726 0.773245 -8.96231 -6.30728 0.866008 -9.21723 -6.59057 0.950411 -9.46173 -6.70582 1.00396 -9.5771 -1.46206 0.41981 -8.19703 -0.953444 0.10798 -8.99957 -0.50969 -0.54972 -9.60827 -0.155497 -0.972755 -10.4423 -0.0920834 -1.03897 -10.5906 0.0417438 -1.17334 -10.9641 0.192728 -1.3189 -11.3615 0.320912 -1.42372 -11.7532 0.464083 -1.57192 -12.157 0.624432 -1.73905 -12.6067 0.711904 -1.83808 -12.9656 -1.62771 0.273563 -8.50007 -1.09114 -0.349614 -9.06905 -0.598768 -0.860118 -9.774 -0.108961 -1.3207 -10.5142 0.130808 -1.57604 -10.9959 0.326542 -1.786 -11.3922 0.481804 -1.91111 -11.7807 0.642884 -2.09033 -12.1683 0.861199 -2.25251 -12.5311 0.951438 -2.32399 -12.6865 -1.80439 0.0978957 -8.92451 -2.43956 -0.674123 -8.90122 -3.16249 -1.36301 -8.84824 -3.72008 -1.69316 -8.89742 -4.1334 -1.947 -8.90134 -4.42897 -2.26765 -9.01291 -4.6931 -2.57874 -9.12061 -4.9961 -2.98095 -9.22524 -5.1725 -3.31235 -9.41097 -5.23314 -3.44606 -9.4794 -1.94964 0.00470016 -9.22445 -1.41833 -0.616391 -9.8006 -0.879177 -1.40643 -10.0924 -0.716015 -2.1336 -10.1959 -0.739715 -2.48112 -10.2563 -0.791016 -2.9629 -10.2814 -0.821257 -3.40556 -10.3316 -0.716385 -3.81596 -10.3257 -0.53998 -4.23592 -10.2889 -0.452833 -4.4216 -10.3152 -2.11633 -0.0970646 -9.5791 -1.63095 -0.640253 -10.2642 -1.03142 -1.0051 -10.9766 -0.428704 -1.15863 -11.7596 -0.352477 -1.18883 -11.8808 -0.143091 -1.34088 -12.3199 -0.0495264 -1.51499 -12.6661 0.0772494 -1.65648 -13.0282 0.216528 -1.74673 -13.4037 0.3425 -1.82228 -13.7658 0.386952 -1.85414 -13.8483 -2.09966 -0.197477 -10.129 -2.83787 -0.742061 -10.5271 -3.54274 -1.19816 -11.0703 -4.27443 -1.70738 -11.5131 -4.53904 -1.9684 -11.6606 -4.87093 -2.22649 -11.8797 -5.14825 -2.46174 -12.0534 -5.47489 -2.71401 -12.2408 -5.75903 -2.94954 -12.4108 -2.19395 -0.291886 -10.6358 -2.27346 -1.2441 -10.9307 -2.21498 -2.22464 -11.1181 -2.1091 -3.15016 -11.3558 -1.89995 -3.56132 -11.4276 -1.70967 -3.91892 -11.4919 -1.55017 -4.30237 -11.6123 -1.38792 -4.62399 -11.7092 -1.27722 -4.87909 -11.7433 -2.21732 -0.421305 -11.1584 -1.40403 -0.437805 -11.7401 -0.669088 -0.34277 -12.4115 0.180336 0.0912237 -12.7117 0.43446 0.242046 -12.801 0.760931 0.440862 -12.9139 1.21016 0.715402 -13.0659 1.52956 0.924986 -13.2539 1.55531 0.942217 -13.2679 -2.25729 -0.533471 -11.5398 -3.06519 -0.888835 -12.0099 -3.93572 -1.18492 -12.403 -4.84905 -1.23943 -12.8066 -5.1698 -1.23336 -12.9557 -5.61085 -1.11935 -13.1097 -5.98683 -1.02538 -13.2444 -6.35323 -0.943357 -13.3797 -2.30092 -0.655811 -11.9507 -3.17033 -0.47045 -12.4087 -4.10374 -0.236748 -12.681 -4.97261 0.17402 -12.9573 -5.19085 0.290633 -13.0344 -5.59552 0.486515 -13.1871 -5.91896 0.830995 -13.3999 -5.96956 0.894365 -13.4385 -2.34815 -0.771044 -12.3392 -1.43391 -0.743437 -12.7434 -0.523982 -0.732673 -13.158 0.395361 -0.797804 -13.5461 0.710396 -0.879618 -13.6983 1.05349 -0.995691 -13.9346 1.38733 -1.21788 -14.0685 -2.37885 -0.948408 -12.9363 -2.61496 -0.190572 -13.5446 -2.79113 0.640319 -14.0724 -2.75682 1.45192 -14.311 -2.74992 1.95232 -14.3776 -2.7586 2.33706 -14.4466 -2.76492 2.57225 -14.5219 -2.43305 -1.02202 -13.3737 -2.07317 -1.53387 -14.1537 -1.25695 -1.74695 -14.6907 -0.648947 -1.94664 -14.8577 -0.23761 -2.06506 -15.0123 0.174497 -2.17307 -15.168 0.511967 -2.21855 -15.2905 -2.45476 -1.08515 -13.81 -2.34081 -0.552838 -14.6488 -2.6188 -0.251085 -15.5608 -2.94439 -0.188457 -16.5042 -2.98071 -0.187877 -16.6145 -3.1678 -0.212267 -16.9925 -2.46837 -1.10302 -14.2866 -1.685 -1.33474 -14.8633 -0.944169 -1.58033 -15.4885 -0.0441004 -1.40748 -15.8885 0.22133 -1.37374 -15.9838 -2.45535 -1.1283 -14.7204 -2.30042 -2.03614 -15.11 -2.15576 -2.93057 -15.5332 -2.02299 -3.72148 -15.944 -2.00332 -3.83234 -15.9941 -2.49293 -1.10894 -15.11 -1.76915 -1.41808 -15.7269 -1.04596 -1.7251 -16.3456 -0.451663 -2.02602 -17.0726 -2.51899 -1.0034 -15.4151 -2.28027 -1.58281 -16.1944 -1.85885 -1.81464 -17.0712 -1.60631 -1.9052 -17.7303 -2.43658 -0.847504 -15.8539 -3.00293 -0.0923971 -16.1842 -3.5337 0.562515 -16.7221 -3.91683 0.832984 -16.9749 -2.30844 -0.739755 -16.3267 -2.86405 -0.584608 -17.1435 -3.28991 -0.428983 -18.0348 -3.36761 -0.379097 -18.2965 -2.22649 -0.688245 -16.7714 -2.67615 -1.22581 -17.4847 -3.12697 -1.76954 -18.1926 -3.14818 -1.79898 -18.2297 -2.16198 -0.656022 -17.1621 -1.62181 -1.38899 -17.5756 -1.15042 -2.04208 -17.9668 -2.01753 -0.68032 -17.5863 -2.31408 -1.61662 -17.7744 -2.5313 -2.31502 -17.9008 -1.84061 -0.736407 -18.062 -0.958001 -0.269526 -18.1169 -0.661177 -0.0707126 -18.1279 -1.70467 -0.716795 -18.5574 -2.64367 -0.732931 -18.9009 -2.64422 -0.732937 -18.9011 -1.579 -0.702193 -18.8834 -0.742601 -0.599198 -18.9251 -1.31738 -0.734084 -19.4908 -1.48416 -0.885617 -19.8477 -1.10377 -0.788172 -19.9147 -1.11293 -0.690162 -20.0047 
</DataArray>
</Points>
<Lines>
<DataArray type="Int32" Name="connectivity" NumberOfComponents="1" format="ascii" >
0 1 2 3 4 5 6 7 8 9 10 11 12 13 14 15 16 17 18 19 20 21 22 23 24 25 26 27 28 29 30 31 32 33 34 35 36 37 38 39 40 41 42 43 44 45 46 47 48 49 50 51 52 53 54 55 56 57 58 59 60 61 62 63 64 65 66 67 68 69 70 71 72 73 74 75 76 77 78 79 80 81 82 83 84 85 86 87 88 89 90 91 92 93 94 95 96 97 98 99 100 101 102 103 104 105 106 107 108 109 110 111 112 113 114 115 116 117 118 119 120 121 122 123 124 125 126 127 128 129 130 131 132 133 134 135 136 137 138 139 140 141 142 143 144 145 146 147 148 149 150 151 152 153 154 155 156 157 158 159 160 161 162 163 164 165 166 167 168 169 170 171 172 173 174 175 176 177 178 179 180 181 182 183 184 185 186 187 188 189 190 191 192 193 194 195 196 197 198 199 200 201 202 203 204 205 206 207 208 209 210 211 212 213 214 215 216 217 218 219 220 221 222 223 224 225 226 227 228 229 230 231 232 233 234 235 236 237 238 239 240 241 242 243 244 245 246 247 248 249 250 251 252 253 254 255 256 257 258 259 260 261 262 263 264 265 266 267 268 269 270 271 272 273 274 275 276 277 278 279 280 281 282 283 284 285 286 287 288 289 290 291 292 293 294 295 296 297 298 299 300 301 302 303 304 305 306 307 308 309 310 311 312 313 314 315 316 317 318 319 320 321 322 323 324 325 326 327 328 329 330 331 332 333 334 335 336 337 338 339 340 341 342 343 344 345 346 347 348 349 350 351 352 353 354 355 356 357 358 359 360 361 362 363 364 365 366 367 368 
</DataArray>
<DataArray type="Int32" Name="offsets" NumberOfComponents="1" format="ascii" >
52 67 81 96 109 123 136 149 162 175 187 199 210 220 230 240 251 260 269 278 286 294 301 308 315 321 326 331 335 339 343 347 351 354 357 360 363 365 367 369 
</DataArray>

</Lines>
</Piece>
</PolyData>
</VTKFile>
