<?xml version="1.0"?><VTKFile type="PolyData" version="0.1" byte_order="LittleEndian">
<PolyData>
<Piece NumberOfLines="13741" NumberOfPoints="80859">
<PointData Scalars=" PointData">
<DataArray type="Float32" Name="time" NumberOfComponents="1" format="ascii" >
0 0.460797 0.696248 0.919349 1.05497 1.19176 1.3721 1.49148 1.53703 1.62416 1.79784 1.99338 2.12939 2.13796 2.2963 2.52894 2.71759 2.88158 2.93348 3.03106 3.21221 3.25895 3.31259 3.46581 3.64956 3.81548 3.87716 4.04356 4.1435 4.22961 4.3749 4.56617 4.73199 4.79412 4.97028 5.19303 5.47303 5.66398 5.78172 5.88314 6.0136 6.15389 6.22586 6.39082 6.54724 6.64024 6.78664 6.95989 7.07219 7.19561 7.30851 7.55973 7.80569 7.97375 8.17224 8.19711 8.41619 8.59063 8.81763 9.01961 9.15722 9.3825 9.49572 9.65301 9.84592 10.12 10.1773 10.2785 10.492 10.5853 10.77 10.9535 11.0632 11.231 11.421 11.6408 11.8113 11.9102 12.1259 12.2784 12.4138 12.655 12.9036 13.0463 13.1191 13.4707 13.6776 13.8208 13.9638 14.042 14.3058 14.4651 14.7684 15.0908 15.2756 15.4554 15.5433 15.7401 15.7756 16.034 16.278 16.4949 16.685 16.9374 17.2587 17.4843 17.6192 17.7356 18.0655 18.4607 18.6939 18.8437 19.1906 19.4085 19.6156 19.7713 19.9964 20.1494 20.545 20.7405 20.9641 21.0919 21.4557 21.8428 22.2912 22.5032 22.6314 23.0008 23.443 23.6999 24.0511 24.2136 24.5592 24.9782 25.1553 25.382 25.6614 26.1676 26.3808 26.6829 26.9975 27 5.0154 6.72477 6.82568 7.1865 7.55359 7.63524 7.88933 8.19908 8.26451 8.3313 8.63106 8.8403 9.11949 9.40086 9.87317 10.3176 10.6751 11.2176 27 12.6732 14.6985 15.223 15.6553 16.524 16.8331 27 12.8948 14.8723 15.4907 16.3679 16.7178 17.3284 27 22.0481 27 24.0567 27 13.7176 17.7102 18.9336 19.927 21.3958 22.1156 27 14.6105 15.3686 15.6859 16.7132 17.2472 18.0625 27 14.8178 17.6413 18.3034 18.5926 18.8586 19.5807 27 15.4861 17.5745 18.1125 18.9548 19.3419 19.9721 27 16.3542 17.2812 18.205 19.048 19.7313 20.7578 27 21.6583 27 23.7695 27 26.1926 27 16.546 27 16.7452 17.7293 18.6088 19.0045 19.8453 20.9222 27 17.685 19.5382 19.8203 20.4659 21.1603 22.1394 27 25.128 27 25.8706 27 18.3919 19.57 19.9198 20.3256 21.3415 21.7562 27 19.4146 20.2261 21.2657 23.0889 24.0205 25.0689 27 20.5593 22.1003 22.9732 23.5236 24.0357 24.8716 27 22.8422 25.4892 25.8864 26.7095 27 25.6622 27 5.29627 6.24085 6.39623 6.63792 6.82681 6.98165 7.33572 7.7479 7.97526 8.22595 8.48652 8.85199 9.02134 9.4019 9.89069 10.2641 10.8502 11.2255 27 9.37522 10.0987 10.6307 10.755 11.656 12.4065 27 15.3464 27 16.8721 27 17.2738 27 21.1135 27 9.64236 10.3876 10.9799 11.3002 11.7621 12.2892 27 15.6633 27 17.5771 27 18.8819 27 21.4096 27 10.0684 10.5769 11.2614 11.8082 12.3559 13.2376 27 19.9077 27 22.3528 27 24.8095 27 10.4112 12.7701 13.9141 14.4146 16.0248 18.5589 27 15.242 27 17.0211 27 17.8635 27 20.9813 27 10.699 13.5096 13.97 14.4942 14.8017 15 15.561 27 21.5589 27 23.2157 27 25.5708 27 11.3835 13.0714 13.4992 14.0047 14.639 15 15.7404 27 20.2632 27 21.542 27 23.2978 27 26.1047 27 12.2339 15.697 16.3588 17.0839 18.15 20.2711 27 18.2462 27 19.3178 27 20.5948 27 22.7577 27 12.7323 14.031 14.4241 15.0676 15.4672 16.3062 27 21.6186 27 22.891 27 25.4333 27 13.3105 15.7588 16.5623 17.2334 17.8617 18.9797 27 24.745 27 13.9485 15.0812 15.4229 15.721 16.3584 17.4036 27 14.9208 16.2184 16.6591 16.9065 17.2772 17.6586 27 24.9914 27 15.4085 16.8008 17.4245 18.053 18.3765 18.5287 27 22.5974 27 24.8498 27 16.6148 20.1319 20.6028 21.4837 22.219 23.4836 27 18.4782 22.159 22.2799 23.008 23.3498 23.9635 27 20.2855 20.3763 20.8479 21.2779 21.347 21.7373 27 26.7377 27 24.6069 25.8007 26.1503 26.668 26.8918 27 5.56286 7.27291 7.57177 7.78146 8.15512 8.47555 8.83254 9.01521 9.36386 9.61176 9.64802 9.99297 10.2494 10.7282 11.1368 11.4018 11.8578 12.21 24.9827 27 17.2287 20.8851 21.848 22.3505 23.2933 24.5958 27 18.0197 20.8491 21.4015 22.0024 22.8107 23.2664 27 18.5981 19.5803 20.1032 20.8823 20.8824 21.6334 27 19.6828 21.6549 22.69 23.2304 24.5006 25.6216 27 20.6766 22.2953 22.8515 23.2974 24.239 24.7115 27 21.8662 22.4408 22.5966 22.744 22.9505 23.3977 27 26.8932 27 22.5139 23.7612 24.142 24.5277 25.0717 25.4813 27 26.8338 27 23.8376 27 24.861 26.3593 26.9182 27 25.0173 26.8105 27 26.6023 27 5.72514 6.0059 6.17219 6.50607 6.70897 7.01767 7.05262 7.09424 7.36609 7.59216 7.90445 8.15757 8.33005 8.45459 8.68781 9.18787 9.32048 22.7816 27 12.2929 16.8988 18.0236 19.6441 20.6453 20.9758 27 13.0088 14.0367 14.3937 14.7495 15.0887 15.0887 27 21.7555 27 23.5609 27 26.1011 27 13.4544 15.6106 15.9444 16.383 16.7916 17.2585 27 23.2873 27 24.5817 27 26.6922 27 14.4055 14.5507 15.2497 15.5412 15.7711 16.2393 27 24.7256 27 15.0266 16.7601 16.9463 17.3758 18.0819 18.2005 27 25.0427 27 25.8127 27 16.0477 23.1429 25.2693 27 16.1699 18.4619 19.8371 20.5346 21.5558 22.7241 27 16.3175 23.0592 26.3923 27 17.339 17.7255 18.3825 19.0625 19.9162 27 22.5762 27 23.6007 27 25.68 27 18.2789 20.2541 21.0388 21.516 22.5145 23.5695 27 24.0133 27 25.7217 27 26.9349 27 19.7554 22.439 23.1699 23.6994 24.4146 24.8932 27 21.1596 24.4813 25.0762 25.6741 26.3219 27 22.2651 22.7693 23.0381 23.3309 23.7023 24.2785 27 26.5606 27 23.1633 26.6028 27 25.1626 27 5.889 6.04725 6.23991 6.45629 6.58283 6.76223 6.84158 7.12231 7.30496 7.47672 7.65448 7.7743 8.09451 8.26827 8.47988 8.77387 9.14511 17.8853 27 11.6732 12.5972 12.9272 13.5661 13.8508 14.7268 27 18.8438 27 19.8558 27 22.2552 27 23.6233 27 12.0685 13.0502 13.4342 13.6687 14.0672 14.4062 27 21.135 27 22.9466 27 24.3394 27 12.5705 14.2161 14.5089 14.7978 15.3899 16.3236 27 26.1614 27 13.1652 15.9735 17.1641 18.1219 18.9471 19.4503 27 13.53 14.8949 15.4149 15.6807 16.185 17.1076 27 14.0719 17.2474 17.5139 18.2399 18.7437 19.3341 27 14.3217 15.4619 16.0544 16.5132 17.0594 17.7543 27 22.181 27 24.0834 27 25.9044 27 15.2638 17.7727 18.0373 19.4504 20.6698 21.131 27 15.9342 16.624 17.0519 17.4838 17.9531 18.3906 27 21.366 27 22.6712 27 24.3196 27 26.8536 27 16.6152 16.7987 16.9447 17.3129 17.7685 18.2921 27 26.0883 27 26.7264 27 17.3827 18.881 19.9116 20.7417 21.2751 22.183 27 25.9267 27 17.9431 20.8466 21.2007 23.1362 23.796 24.8598 27 19.6668 21.6515 22.3821 22.9052 23.5721 24.3319 27 20.7913 22.8206 23.2222 23.356 23.8934 24.6873 27 22.4366 23.4145 24.0278 24.4409 24.6239 25.2915 27 25.6063 27 6.10527 6.32987 6.45712 6.62256 6.81288 6.96562 7.25567 7.28981 7.37416 7.76641 7.93027 8.19861 8.23107 8.44321 8.65385 8.99032 9.1996 22.4093 27 13.0171 15.5297 16.0848 16.7095 16.9775 17.4382 27 13.6387 15.556 15.9005 17.0642 17.9037 19.049 27 25.144 27 26.1568 27 14.0074 16.6446 17.0501 17.5304 18.0142 18.4268 27 14.507 16.8327 17.493 18.3433 19.3312 19.979 27 26.1184 27 15.1132 18.0985 18.8357 19.6726 20.4315 21.1638 27 15.6277 15.8402 16.466 16.8843 17.5712 18.7068 27 25.5631 27 16.6864 18.5816 18.7885 19.0738 19.9959 20.3979 27 16.8191 17.6005 17.8741 18.3849 18.5479 19.0981 27 17.1553 18.089 18.5146 18.7551 18.944 18.944 27 18.9055 19.8733 20.0072 20.4868 21.1377 22.0147 27 19.7533 23.0621 23.6075 24.5184 25.1935 25.5727 27 21.355 21.3944 21.6999 22.1997 23.0431 23.4386 27 21.5715 24.7512 25.5954 27 23.1487 27 25.1032 26.1745 26.5939 26.988 27 6.2486 9.04512 9.3859 9.5904 9.79016 10.1528 10.6862 10.9767 11.7025 12.2582 12.4906 12.8935 13.0603 13.5552 13.9131 14.6868 15.0872 15.8726 27 25.5147 27 26.4866 27 6.30333 6.36176 6.49323 6.4962 6.65569 6.87834 7.12277 7.41484 7.59639 7.95042 8.19365 8.57389 8.93379 9.25028 9.8126 10.5032 10.85 15 7.20762 8.62996 9.07592 9.34606 9.71127 10.3393 27 19.735 27 21.8988 27 23.5053 27 26.277 27 7.28436 8.13257 8.6376 9.05362 9.73595 10.2108 27 13.7582 27 15.3163 27 16.8881 27 20.6228 27 25.8405 27 7.4586 10.4055 11.1058 12.0658 12.7207 13.8816 27 20.5765 27 22.7896 27 26.5905 27 7.46256 8.79165 9.08303 9.51679 10.0581 10.4847 27 14.4367 27 15.4077 27 17.1711 27 20.4406 27 25.8879 27 7.67711 11.3784 12.2455 12.9715 14.0543 14.1312 27 19.9605 27 22.712 27 25.6688 27 7.98283 8.95995 9.3083 9.91103 10.3986 10.8237 27 19.6059 27 21.1436 27 24.5952 27 8.32775 11.8033 12.8961 13.7627 14.0822 15 15.031 27 8.75457 10.0747 10.3478 10.8288 11.6429 12.1489 27 18.8632 27 19.8737 27 21.9753 27 9.0291 10.3974 10.687 11.0701 11.6981 12.4868 27 18.574 27 19.5858 27 21.1197 27 9.58854 11.6211 12.4689 13.1595 13.9338 14.7745 27 17.077 27 19.2656 27 21.4946 27 24.9373 27 9.99472 12.4351 12.7485 13.4339 14.2991 14.6497 27 23.09 27 24.3384 27 10.6745 12.8865 13.4503 13.7157 14.3974 14.8724 27 23.2249 27 25.6911 27 11.3832 12.4223 13.4121 14.2789 14.5016 15 15.322 27 24.8986 27 12.0778 12.922 13.2245 13.6456 13.9533 14.4961 27 21.0341 27 22.2813 27 24.4411 27 26.5571 27 13.5693 17.0548 17.2499 17.9211 18.5833 18.7493 27 24.8982 27 25.6072 27 16.4088 18.2957 18.4962 18.9655 19.341 20.2946 27 23.7537 27 24.3302 27 25.8715 27 19.2602 20.4961 21.0954 21.42 22.2162 22.9713 27 6.40807 6.53017 6.63089 6.74186 6.86789 6.91388 7.10008 7.23626 7.2872 7.40337 7.65592 7.72926 7.91859 8.17401 8.35192 8.51667 8.65764 14.9633 27 13.031 14.023 14.9739 15.6221 16.3242 17.396 27 20.0296 27 22.4975 27 24.5717 27 13.4125 14.0606 14.5145 15.024 15.9376 17.1535 27 13.7404 16.2541 16.7415 17.05 18.3642 19.1216 27 23.9059 27 25.3394 27 26.3526 27 14.117 17.0429 17.9473 18.8322 19.9618 21.2852 27 14.5665 15.7048 16.246 16.8932 17.4927 17.8831 27 14.7369 17.0174 17.5143 18.0449 18.5899 18.9839 27 15.4662 16.7544 16.9969 17.4718 17.8687 18.413 27 23.0416 27 23.8782 27 25.8676 27 16.0461 17.8159 18.5379 18.886 19.3667 19.8114 27 20.589 27 22.2934 27 23.3224 27 25.1763 27 16.2747 18.0999 18.423 19.1337 19.7175 20.4543 27 16.8236 19.0643 20.3349 20.9907 21.7149 22.8611 27 23.2513 27 26.0314 27 18.1795 19.2879 19.9453 20.6252 21.5133 21.8734 27 24.3011 27 26.0615 27 18.6263 20.9105 22.4023 23.6827 24.4152 25.6474 27 19.932 22.617 23.0025 23.7578 24.9111 25.6012 27 22.2202 24.6667 25.2207 25.8085 26.5375 27 24.4748 26.5633 26.9814 27 6.61705 7.69939 7.83345 8.03942 8.12087 8.295 8.37491 8.55103 8.8027 8.9082 9.20535 9.31185 9.51907 9.59482 9.81682 10.0187 10.1739 10.4074 17.2448 27 13.6974 15.255 16.5739 17.1913 18.011 18.9517 27 24.0074 27 14.0654 18.9275 19.7071 19.7072 20.5029 21.8931 27 14.6604 16.1876 17.3892 18.314 18.9974 19.3468 27 14.9068 17.8871 19.0918 20.0221 20.3266 21.2457 27 15.4575 15.913 16.2049 16.9807 17.747 18.6664 27 15.7223 17.0798 17.5912 18.3384 19.0729 19.0729 27 20.9198 27 22.2434 27 24.8216 27 16.3364 18.8096 19.2328 20.0762 20.403 21.1586 27 17.301 20.8634 22.3802 23.7699 25.1829 26.2984 27 17.7422 19.6525 20.1701 20.8556 21.8455 22.5891 27 19.1387 20.9869 21.394 22.0798 23.3985 24.2389 27 19.7092 20.1486 20.4937 20.9269 21.1082 21.8446 27 20.9651 25.9161 27 21.4852 24.0144 24.8413 25.4435 26.5473 27 23.2796 25.4636 26.3306 26.6304 26.9256 27 25.4638 26.2093 26.9751 27 6.85267 8.46887 8.80215 8.95414 9.29653 9.67293 9.79 10.1312 10.3656 10.6221 10.7552 11.1856 11.6569 11.8399 12.05 12.3096 12.6701 13.3211 27 14.1651 14.5858 14.9613 15.3436 16.048 16.2891 27 22.0508 27 25.3439 27 14.8784 18.7619 19.9762 20.6836 21.36 21.9807 27 15.2158 15.7712 16.3315 16.7267 17.0163 17.387 27 25.5276 27 16.0076 18.4888 19.1062 19.3666 19.9839 20.9434 27 16.9361 18.1446 18.7034 19.1379 19.7393 20.5717 27 22.0416 27 23.4086 27 24.6697 27 26.9154 27 17.2391 17.8419 18.2321 18.455 19.0605 19.7063 27 18.1671 19.886 20.4726 21.0123 21.8059 23.1354 27 18.8488 19.2091 20.063 20.881 22.2718 27 19.034 27 19.4323 27 20.4134 27 21.4304 27 23.5606 27 19.6441 20.9262 21.133 21.6582 22.165 22.3952 27 20.0797 21.0259 21.3528 21.7675 22.3556 22.7959 27 21.6214 22.9048 22.9169 23.2746 23.6726 23.9343 27 23.622 24.5121 25.3396 26.013 26.6269 27 24.5221 26.5205 27 25.6715 27 7.01678 8.82968 9.00423 9.22381 9.57837 9.70469 9.95857 10.1242 10.2222 10.5264 10.744 11.0083 11.2124 11.6932 12.2561 12.3839 12.8287 13.2577 27 15.8674 19.8913 21.4025 22.6016 22.6726 23.4633 27 16.2816 16.4716 17.0709 17.687 18.1745 27 26.0808 27 26.8365 27 16.8205 18.5231 19.3371 19.8368 20.7664 22.0569 27 17.7382 19.3216 19.7536 20.0602 20.4636 20.9706 27 18.0809 21.29 22.618 23.3761 24.6199 25.2313 27 18.7987 20.6983 20.9253 21.1578 21.3793 21.9534 27 19.2897 22.5931 22.6926 23.5705 24.0113 24.329 27 19.5898 19.9015 20.2303 20.377 21.1349 21.3239 27 20.5715 23.5014 24.2151 25.1518 26.2633 26.4656 27 21.3274 23.4893 24.3687 24.7042 26.2706 26.9116 27 22.3181 22.9708 23.4531 24.0514 24.5285 25.5947 27 23.1481 24.8896 25.5964 26.3556 26.8976 27 25.4034 25.5895 25.9028 26.1101 26.4468 27 7.02713 8.90468 9.1133 9.26708 9.4605 9.60916 9.89914 10.3258 10.4959 10.6886 11.0214 11.0214 11.2014 11.3601 11.6717 11.8547 12.3108 12.4594 27 13.3328 14.4916 15.0993 15.8517 16.7977 17.8457 27 20.6811 27 22.2352 27 24.5228 27 13.785 15.1605 16.1942 16.961 17.6736 18.2853 27 23.9356 27 14.1309 15.4896 16.081 16.3235 17.0664 17.6641 27 17.9004 27 19.1514 27 19.7422 27 22.0695 27 25.3933 27 14.583 15.7153 16.1427 16.2115 16.6127 16.7416 27 23.1813 27 25.4049 27 25.8523 27 14.9447 16.8858 17.13 17.6529 18.0984 18.5258 27 15.6913 16.7045 17.1504 17.5756 17.5756 17.9921 27 23.9197 27 25.9216 27 16.9118 20.1212 20.7485 21.727 22.6682 23.3031 27 17.4496 21.5397 22.3686 23.3657 24.6435 25.6379 27 18.1034 20.0229 20.7421 21.9039 23.221 25.0124 27 19.373 20.8534 21.5973 22.2926 23.0135 23.1541 27 19.3731 21.2778 21.6302 21.7081 22.4129 22.8195 27 20.1564 20.3413 21.0703 21.7265 22.4204 22.8586 27 20.9226 24.1735 24.836 25.8933 26.2651 27 22.7128 23.2997 23.5131 23.9215 24.4909 24.9075 27 24.0274 25.3321 25.8748 26.5002 27 7.21842 7.35325 7.59477 7.75723 8.02115 8.23385 8.43761 8.61852 8.7308 8.95152 9.28477 9.57038 9.93356 10.2029 10.6247 10.8684 11.1987 27 13.706 15.5583 16.1441 16.7045 16.9696 17.0882 27 24.0612 27 26.7745 27 14.0285 14.7723 15.2077 15.743 16.0712 16.4046 27 20.2208 27 21.7277 27 24.2575 27 26.6185 27 14.6276 17.5264 18.3914 19.891 20.356 21.147 27 15.0473 16.7488 17.0061 17.8056 18.2779 18.8681 27 21.4716 27 22.1587 27 24.8116 27 15.7618 17.4361 18.3178 18.9292 19.6227 19.9152 27 16.3709 18.7783 19.7203 20.2479 21.4473 22.7815 27 23.5083 27 25.5468 27 26.86 27 16.9865 18.7364 19.2679 19.9932 20.6368 21.2173 27 17.5632 19.3702 19.6889 19.8972 20.9863 21.287 27 17.9371 18.9281 19.4404 20.076 20.7098 21.7079 27 18.7127 19.8515 20.28 20.6393 20.933 21.1185 27 20.0064 21.5678 22.4094 23.0566 23.7031 24.6072 27 21.2671 24.9437 25.8224 26.1867 27 23.1566 25.7659 26.8172 27 24.8626 25.538 25.8967 26.2512 26.5937 26.9271 27 7.49992 8.04511 8.14338 8.2062 8.28923 8.41715 8.48316 8.63157 8.85048 9.04022 9.23262 9.51001 9.55681 9.67549 9.78955 10.1449 10.398 10.5382 20.3694 27 12.5464 15.3679 15.8726 16.1731 16.9571 17.3502 27 12.792 13.991 14.9027 15.8706 17.0367 18.0847 27 25.6289 27 12.9529 13.7983 14.3286 14.9488 14.9489 15 15.4847 27 21.4156 27 23.5455 27 13.1705 15.443 16.3295 17.2007 17.831 18.8653 27 23.2651 27 25.8571 27 13.518 16.3916 17.0058 17.4385 18.0567 18.4766 27 13.7035 15.5013 15.6394 15.9809 16.5022 16.9613 27 25.5873 27 26.2126 27 14.1377 15.9833 16.6416 17.2181 18.1891 18.8407 27 14.8285 15.8539 16.4596 17.0466 17.9976 18.6461 27 19.5492 27 20.9112 27 22.479 27 26.0627 27 15.4862 16.3994 16.694 17.7421 18.139 18.9628 27 19.5281 27 20.1483 27 22.8839 27 24.3055 27 16.2243 18.6345 18.9114 19.7939 20.3513 20.6231 27 17.4592 18.7724 19.0137 19.3819 19.7319 20.3245 27 24.5979 27 25.4218 27 26.909 27 17.6935 18.1726 18.609 19.2663 19.5569 27 22.729 27 24.2068 27 25.8989 27 18.3306 20.3356 20.6791 21.2731 21.7634 22.2793 27 19.0132 23.1521 23.5248 24.1279 24.8139 25.7123 27 21.8688 24.4171 24.9629 25.6778 26.1611 26.506 27 25.5001 27 7.72858 12.6014 12.9768 13.4433 13.9341 14.5138 14.9569 15.4414 15.8845 16.3245 16.5336 17.5127 18.4428 19.3365 20.2043 20.8495 21.4017 22.3299 27 22.7445 25.9187 26.3507 27 23.5044 24.7719 26.1086 26.5418 27 24.4777 27 25.5402 27 26.8519 27 7.92763 9.94907 10.3094 10.6505 10.9423 11.149 11.4521 11.6836 12.0857 12.2483 12.5201 13.1945 13.5991 13.9411 14.5027 14.9266 15.536 15.8141 27 25.0269 27 26.0893 26.462 26.9704 27 7.99069 10.0612 10.0949 10.3371 10.655 10.7999 10.8687 11.1294 11.3013 11.6257 11.8819 12.1709 12.4685 12.5507 12.7825 13.0806 13.3889 13.71 27 16.2066 21.5721 21.7255 23.1857 24.5927 25.5687 27 16.2875 19.5745 20.3982 21.9371 23.1044 24.2164 27 16.8852 19.9308 20.8416 22.0398 22.5272 23.4599 27 17.7196 19.6977 20.3197 20.7865 21.2239 21.4756 27 18.1215 20.7935 21.6647 22.9715 23.5991 25.0607 27 18.3177 20.8423 21.7101 22.5092 23.0524 23.3898 27 19.0951 21.3102 22.0388 23.1301 24.6521 25.703 27 19.6416 22.1545 22.6886 23.2853 23.7796 24.1614 27 20.7609 21.7845 22.238 22.6852 23.5603 23.8694 27 21.7459 24.2781 24.8443 25.4843 26.2325 26.5042 27 22.998 24.7594 25.5011 26.8921 27 24.5009 25.4443 26.1543 26.8128 27 24.9665 25.847 25.977 26.3054 26.65 27 26.4366 27 8.10932 10.2277 10.4607 10.8012 11.1602 11.5032 11.7028 11.8928 12.2005 12.5263 12.775 13.2904 13.6273 14.0664 14.5148 14.7191 15.1775 15.7074 27 15.8796 18.9147 19.7425 21.0804 22.3132 23.5026 27 24.7109 27 26.5501 27 16.3508 17.682 18.1156 18.4589 18.9842 19.19 27 17.0654 21.1386 22.2531 22.8752 23.3477 23.962 27 17.8567 20.7292 21.3201 21.9946 22.4163 23.3495 27 18.6548 20.6609 21.6594 22.3166 22.8579 23.5705 27 19.1408 22.0897 23.3739 24.4976 25.5535 26.8035 27 19.6202 21.8325 22.2735 23.2168 24.272 25.2111 27 25.9517 27 26.8958 27 20.4347 21.7505 21.9813 22.0703 22.3116 22.6123 27 21.3571 23.962 24.8698 25.5293 26.3774 27 22.1101 26.0468 27 23.8413 27 25.1342 27 8.32978 12.062 12.1213 12.4912 12.758 13.2376 13.4101 13.8006 14.0593 14.5538 14.8807 15.2093 15.5976 15.7586 15.9976 16.7447 17.0813 17.7106 18.0046 27 17.3169 20.1258 20.8681 21.6321 22.1318 23.1826 27 18.0312 18.3428 18.662 19.1163 19.5891 20.3538 27 21.0814 27 21.7922 27 22.967 27 24.5272 27 18.5664 21.1127 22.2466 22.8977 22.921 23.5821 27 19.5762 24.068 25.1473 26.197 27 19.9563 20.0253 21.044 21.6273 22.3387 23.4782 27 25.6902 27 20.8552 22.8289 23.2091 23.8047 24.4436 25.0963 27 21.4838 23.3486 23.9665 24.305 24.9351 25.7463 27 22.7738 25.1381 26.3583 27 23.7029 27 24.7137 26.9767 27 26.0315 27 26.626 27 8.38673 8.93309 9.05435 9.1928 9.47067 9.62147 9.83005 10.1 10.3362 10.4351 10.7534 10.951 11.2386 11.5275 11.7255 11.8143 12.0147 12.3636 27 13.9859 16.2647 16.6862 17.1903 17.9359 18.5448 27 14.264 15.4907 15.9852 16.317 17.0106 17.6951 27 25.8899 27 14.5906 16.2736 16.9336 17.495 17.9581 18.5913 27 19.0564 27 20.5244 27 22.0924 27 23.8096 27 15.2784 15.8375 16.6543 17.2235 17.5698 17.877 27 24.3191 27 15.672 18.285 18.8647 19.8117 20.6714 21.4175 27 16.2436 17.5076 18.6133 19.0191 19.4662 20.4072 27 21.9243 27 24.73 27 26.0379 27 17.0384 18.7166 19.2171 20.052 20.5873 21.3785 27 17.795 19.8552 20.0919 20.5815 21.3375 22.2573 27 18.1322 19.0554 19.4339 19.8495 20.2112 20.2112 27 19.317 20.2891 20.6708 20.9719 21.4229 22.233 27 25.4474 27 26.5831 27 20.1479 20.4288 20.8223 21.088 21.2977 21.9644 27 25.1416 27 26.4235 27 21.5382 21.9447 22.2174 22.4541 22.7915 23.1223 27 24.1747 27 24.8725 27 25.5943 27 26.9614 27 23.2487 23.3195 23.932 24.3208 24.6396 24.6566 27 24.707 26.3181 26.8333 27 25.4731 26.8905 27 8.4521 10.2674 10.5726 10.8478 11.1894 11.5317 11.9205 12.2664 12.5132 12.6307 13.0656 13.4615 13.8946 14.138 14.5552 14.8792 15.4485 15.9369 27 15.2772 15.376 15.8457 16.4216 16.5543 16.6564 27 22.4172 27 24.6242 27 15.8646 16.3782 16.6287 17.0424 17.3681 17.9052 27 19.2949 27 19.9272 27 21.1742 27 22.4556 27 26.2296 27 16.4136 19.1731 19.9987 21.1368 22.6157 22.8893 27 23.1586 27 24.8884 27 17.1231 19.4286 19.5994 19.9591 20.8292 21.8019 27 23.3912 27 23.7856 27 24.6828 27 17.87 21.288 21.7504 21.9265 22.3417 23.2431 27 18.7691 24.1471 24.9055 26.5163 26.9145 27 19.6224 20.3245 20.6213 21.1687 21.8756 22.21 27 24.7543 27 25.589 27 20.2673 21.756 22.2855 22.7135 23.6556 24.5183 27 20.5865 22.9705 23.4728 24.3571 25.1333 25.5436 27 21.8461 27 23.124 25.8196 26.5195 27 24.7151 26.5131 27 25.7267 27 8.63901 9.51305 9.72181 10.1016 10.3215 10.7702 11.0256 11.2679 11.4916 11.7795 12.3139 12.7058 13.0913 13.484 13.805 14.1273 14.8479 15 15.2749 27 14.9572 17.1577 17.5365 18.1798 18.735 19.5555 27 25.0496 27 26.267 27 15.3662 15.9917 16.5691 17.3452 18.1652 19.0388 27 16.1373 16.4079 17.0004 17.6427 18.3691 27 16.6015 19.0293 19.6248 19.9428 20.683 21.8751 27 17.5948 19.0309 19.2621 20.1058 20.6458 21.8596 27 18.1913 22.7415 23.1199 23.4817 24.4155 25.1859 27 18.7817 20.25 20.7452 21.2682 21.5484 22.151 27 19.35 20.5004 21.0194 21.3874 21.8443 22.1364 27 20.1189 21.4329 21.5144 22.1691 23.0669 23.8408 27 21.6814 23.0208 23.3655 23.7506 23.9377 24.475 27 22.9695 23.9671 24.685 25.5464 25.827 26.5207 27 24.3944 26.4605 26.6791 27 26.0638 26.3576 26.8383 27 8.86347 9.33999 9.58695 9.86838 10.0389 10.0611 10.2477 10.4444 10.5059 10.7105 10.9178 10.9178 11.2978 11.5511 11.8005 12.0048 12.2712 12.4596 23.8429 27 16.2785 18.8487 19.3469 19.7962 20.6452 20.9976 27 16.9634 18.4203 18.8026 18.969 19.1355 19.2299 27 17.8011 20.559 21.3598 21.958 22.6855 23.3167 27 18.3437 19.105 19.586 20.4004 20.6145 21.1792 27 24.5437 27 25.9886 27 18.4163 19.7691 20.3107 21.1178 21.8386 22.8295 27 19.0502 20.7766 21.8453 23.297 24.6156 25.2915 27 19.7658 21.0389 21.2579 21.5634 21.8853 22.5139 27 20.001 21.1517 21.5279 21.9385 22.3076 22.8531 27 20.8287 21.7151 22.1128 22.6832 23.2657 23.871 27 26.4855 27 21.7509 23.9111 24.0754 24.6091 25.0485 25.8938 27 21.7509 23.979 24.5783 25.1513 25.8628 26.232 27 23.7412 25.9919 26.4044 26.5159 27 25.3864 27 9.06647 10.957 11.1639 11.3415 11.4793 11.7547 11.8755 12.0278 12.1344 12.5013 12.8013 13.0703 13.3338 13.4956 13.7775 14.0069 14.4659 14.8547 27 14.7008 17.0455 18.5284 19.7103 21.1349 22.3724 27 25.7522 27 15.1096 17.125 17.6827 18.7406 19.4919 21.0912 27 22.4204 27 23.6493 27 26.3874 27 15.4729 17.277 17.9371 18.4363 19.5475 20.4589 27 15.7633 17.7002 18.2073 18.6243 19.1804 19.5691 27 25.97 27 16.3689 21.4339 21.9085 23.0293 23.8581 26.09 27 16.6465 19.218 19.6576 20.3012 21.0024 21.5773 27 17.0078 19.3851 19.8785 20.5898 21.2698 21.97 27 17.2689 17.829 18.3844 19.2967 19.9984 20.5367 27 18.2284 19.668 20.1031 20.4334 20.9444 21.4599 27 19.0983 21.7554 22.1847 22.4469 22.9963 23.6249 27 19.9631 21.8106 22.2208 22.5023 22.8936 23.408 27 20.9121 26.6772 27 21.5588 23.2717 23.9345 24.9503 26.0723 27 24.8579 27 25.8636 27 22.8417 23.9755 24.7369 25.1556 26.0173 27 24.0913 25.0071 25.3963 25.9939 26.6658 27 9.142 10.2128 10.3493 10.6647 10.9891 11.1449 11.2688 11.5233 11.6332 11.9635 12.0187 12.2847 12.7685 13.1153 13.5838 14.0624 14.4863 14.7554 27 15.9698 17.828 18.6529 19.0678 19.8839 20.6849 27 16.2651 17.3958 18.2166 18.7791 19.401 19.8973 27 25.3188 27 16.9731 18.1564 18.5878 19.1792 19.5373 20.4485 27 26.0346 27 17.7426 20.4003 20.6842 20.6974 20.9834 21.2082 27 18.1291 19.2465 20.1625 20.9219 21.691 22.4603 27 18.4454 19.5895 20.091 20.8641 21.5617 22.0238 27 19.1215 22.0478 22.4152 23.0064 23.5894 24.1072 27 19.4258 21.0401 21.2333 21.4592 21.741 22.3393 27 20.3914 22.116 22.6553 23.478 24.4093 25.2464 27 20.5608 21.6004 21.8046 22.5786 23.3459 24.3569 27 21.4169 22.5385 22.797 23.0019 23.0367 23.5326 27 23.1755 24.0168 25.0817 26.085 27 24.6549 26.0681 26.8136 27 9.34597 9.60388 9.71988 9.80956 10.0537 10.2754 10.539 10.539 10.8825 10.9179 11.1081 11.2957 11.4102 11.6972 11.9766 12.0931 12.1932 22.1119 27 18.2338 18.4565 18.9822 19.3545 19.8657 20.1591 27 25.7 27 19.0727 21.8425 22.927 23.0621 23.5725 25.2312 27 19.4717 22.2497 23.8623 24.6193 24.7942 24.8775 27 19.7905 21.9118 22.2996 22.6682 23.2772 24.1948 27 20.7099 24.5104 25.7562 26.4539 27 21.6214 25.8541 27 22.8239 24.4349 24.87 25.2846 26.0923 26.8254 27 22.8239 25.6122 25.8867 26.6729 27 24.6532 27 24.8637 27 26.0827 26.6992 27 9.46863 9.80265 9.82189 9.96438 10.2148 10.4154 10.6173 10.7829 10.9445 11.1135 11.4059 11.5825 11.6917 12.0004 12.3604 12.5437 12.5437 12.7155 27 12.9859 14.9858 15.6905 16.582 17.5958 18.1993 27 13.025 13.7611 14.12 14.5924 15.246 15.642 27 25.2493 27 26.9035 27 13.3201 16.034 16.8901 18.1052 18.3184 19.8389 27 13.8651 17.9361 19.3894 20.1466 21.3248 22.7352 27 14.3298 15.6454 16.3149 17.1549 17.5923 18.4097 27 26.4126 27 14.827 16.2376 17.0212 18.0589 19.5165 20.4305 27 15.2617 16.8138 17.1672 17.8123 18.1519 19.2527 27 21.9879 27 22.915 27 24.9133 27 26.207 27 15.7127 17.7038 18.3022 18.7904 19.5767 20.4426 27 16.2183 18.092 18.6367 19.7891 21.2121 22.2662 27 26.2536 27 17.1974 17.225 17.9411 18.755 20.1504 20.8201 27 17.8726 19.1941 19.5812 20.0924 20.8661 21.7668 27 18.3311 19.6649 20.0448 20.4188 20.845 22.0117 27 19.8707 22.5162 23.1345 24.2627 25.0379 25.4617 27 22.4919 25.0805 26.1144 27 24.6347 26.0314 26.5673 26.9117 27 24.6348 26.7368 27 9.57439 9.64468 9.78037 9.89505 9.97035 10.0864 10.1441 10.2076 10.2991 10.4799 10.5438 10.6973 10.9353 11.0855 11.2068 11.4094 11.7469 27 11.3087 13.6088 14.6737 15.2696 16.7148 17.4687 27 21.2543 27 24.1487 27 26.1058 27 11.4385 12.3193 12.5263 12.8839 13.3475 14.0861 27 18.9562 27 19.6646 27 21.0668 27 23.4189 27 11.697 13.6782 14.1896 14.5477 14.8428 15 15.5719 27 24.272 27 26.6011 27 11.9246 13.4742 13.645 13.8294 14.0509 14.9438 27 20.3149 27 20.9457 27 21.6943 27 22.7135 27 12.0792 14.1578 14.4936 15.3827 16.0983 16.4027 27 12.3261 14.9472 15.1389 15.6605 15.8541 16.543 27 12.4534 14.3548 14.8349 15.3956 16.1269 16.9326 27 22.7749 27 24.38 27 26.6438 27 12.5971 15.0584 15.195 15.303 15.9928 16.8831 27 24.3069 27 24.8293 27 25.264 27 12.8115 15.6304 15.9615 16.3746 17.3121 18.3616 27 24.3666 27 25.4263 27 26.9089 27 13.265 14.7791 15.2231 15.8588 16.2538 17.2748 27 26.8099 27 13.4365 15.4707 16.1627 16.7095 17.4655 18.034 27 13.8772 17.2428 17.9173 18.7868 19.6374 20.5413 27 14.6659 17.8386 18.759 19.1352 19.337 19.7524 27 15.2577 16.8744 17.2204 17.8114 18.3647 18.7959 27 23.9412 27 25.1269 27 15.8147 16.5261 17.0376 17.8742 18.3778 18.5956 27 20.0529 27 21.3418 27 24.2544 27 16.9989 17.4488 18.0155 18.5329 18.986 19.1306 27 21.2554 21.8344 22.2944 22.5625 22.9469 23.3256 27 9.75302 10.8905 11.3073 11.4841 11.761 11.946 12.4086 12.9513 13.1936 13.2071 13.421 13.7725 14.0278 14.2163 14.604 14.8023 15.1321 15.4785 27 21.3241 23.6618 24.4342 25.1028 25.2641 25.4949 27 22.4992 25.0202 25.4203 25.6467 26.4537 26.79 27 23.0253 24.6146 25.7533 26.3875 26.8809 27 23.8865 24.5106 25.0287 25.7473 25.8553 26.3105 27 24.4902 27 26.1182 27 9.98855 11.5115 11.9098 12.1758 12.3846 12.803 13.2445 13.5799 14.2218 14.7083 15.2789 15.873 16.4901 17.1986 18.0307 18.9037 19.7078 20.5569 27 13.8257 14.8635 16.3013 16.7113 17.6592 18.9179 27 14.378 16.421 17.3988 18.3097 19.2933 19.7008 27 14.7537 18.1171 19.0564 20.1206 22.1933 23.9618 27 15.0527 16.7408 17.2442 18.1883 19.1162 19.4513 27 15.6633 19.233 20.442 21.2173 22.2806 23.1983 27 16.3259 17.3296 17.8089 18.2623 19.2605 19.8698 27 26.6651 27 16.8437 19.8017 20.5145 20.9821 21.1052 22.0368 27 17.8732 21.4696 22.0683 22.628 23.794 25.0826 27 18.6931 18.9696 19.3029 19.659 20.4788 27 19.7071 20.8232 21.1919 21.8053 22.2203 22.5344 27 20.8357 22.9447 23.1804 23.4179 23.8667 24.3927 27 22.1069 23.5822 24.1653 24.8617 25.7488 26.9971 27 23.7305 27 25.9609 26.9165 27 10.1931 12.2638 12.5483 12.6497 12.7622 13 13.4771 13.8517 14.0618 14.3775 14.6284 14.9709 15.2054 15.7016 16.0856 16.1593 16.3994 16.7096 27 18.9177 20.4565 20.9564 21.118 21.5122 21.6734 27 25.7792 27 19.5829 22.745 23.3322 24.0568 25.5642 27 19.8279 22.6184 23.7943 24.2174 25.1373 25.9258 27 20.1048 24.5098 24.7091 25.0113 25.6933 26.1927 27 20.71 23.12 23.6662 24.6436 25.9254 26.994 27 22.0168 24.2063 24.6908 25.1245 26.3815 27 23.1492 25.7236 26.242 26.7813 27 23.8355 27 24.9506 27 25.9251 27 10.2698 10.5991 10.8486 10.9163 11.301 11.5228 11.8093 12.0381 12.3625 12.6934 12.9178 13.2733 13.4206 13.8616 14.2352 14.6133 14.8777 15 15.1107 27 15.4781 17.3325 17.9549 18.7145 18.968 19.6663 27 23.3 27 25.2027 27 15.9937 16.1998 16.3204 16.4786 16.8012 17.2094 27 23.5494 27 24.1279 27 24.9836 27 16.1371 17.3953 17.8456 18.1017 18.6122 18.6851 27 24.1601 27 26.175 27 16.9841 17.9607 18.1432 18.6442 19.1555 19.4948 27 17.5002 19.1715 19.532 20.2282 20.3791 21.0379 27 18.2017 22.0394 22.7009 24.1672 25.3247 26.5379 27 18.7946 20.7022 21.7476 22.5222 23.1113 24.0655 27 19.6939 23.3529 24.0695 24.86 25.5614 26.4698 27 20.698 21.1296 21.7401 22.3981 23.3311 27 26.1962 27 21.4402 23.2504 23.3785 24.0372 25.3579 26.7116 27 22.7475 25.9872 26.7044 27 23.3476 23.7843 24.0331 24.2197 24.7228 24.8762 27 25.4324 27 10.4875 13.4693 13.7561 14.273 14.6927 15.474 16.0035 16.1923 16.8256 17.2317 17.6337 17.9961 18.9128 19.2274 19.8131 20.1028 21.11 21.7103 27 22.3485 25.656 26.6101 27 22.9355 26.6382 27 24.0306 27 24.9591 26.5781 27 26.7974 27 10.7633 10.9748 11.1114 11.2701 11.5263 11.6917 11.9738 12.0928 12.303 12.4647 12.7012 13.0053 13.3068 13.3898 13.5457 13.9067 14.312 27 15.7474 16.1084 16.118 16.4658 17.5362 17.7669 27 23.8032 27 23.8381 27 25.2028 27 16.2298 19.4154 20.4309 20.8188 21.833 23.2388 27 16.553 20.0845 20.4451 20.9658 22.1221 22.6378 27 16.9414 19.3074 20.0565 20.5892 21.2906 21.9592 27 17.6008 22.818 24.5072 25.827 27 18.051 20.0231 20.5421 21.6218 22.4824 23.2057 27 18.8709 20.8654 21.1044 21.7594 22.3794 23.2956 27 19.2397 20.6163 21.4053 22.0332 22.4039 22.9525 27 19.9303 21.319 21.7565 22.0406 22.6999 23.2844 27 20.5007 22.7424 23.4316 24.165 24.6876 25.3845 27 21.4112 23.2629 23.555 24.1109 24.3231 24.8896 27 22.7532 25.0342 25.4735 25.8839 26.2384 26.6438 27 24.359 26.9609 27 24.8682 27 25.932 27 11.1108 13.3868 13.6482 13.8782 14.0284 14.1537 14.2957 14.4638 14.6587 14.9029 15.0332 15.2721 15.4541 15.7726 15.926 16.1344 16.5763 16.9979 27 19.1776 20.7174 20.9982 21.6214 22.1626 22.6742 27 26.6817 27 19.807 22.9901 23.7743 24.2368 24.7604 25.6635 27 20.3908 24.5862 25.315 25.6515 26.3977 27 20.7895 22.8726 23.1047 23.3843 23.6884 24.1443 27 21.1336 23.4252 23.758 24.1932 24.6301 25.1133 27 21.5378 23.8011 24.4198 24.9754 26.446 26.944 27 22.0373 22.618 23.1245 23.5107 24.3209 27 25.6923 27 22.6494 23.7382 24.0451 24.561 24.9477 25.5961 27 23.4744 25.7203 26.1142 26.9085 27 23.9457 26.5542 27 24.8772 25.9911 26.2955 26.8027 27 25.6579 27 11.3483 13.9382 1