<?xml version="1.0"?><VTKFile type="PolyData" version="0.1" byte_order="LittleEndian">
<PolyData>
<Piece NumberOfLines="18" NumberOfPoints="120">
<PointData Scalars=" PointData">
<DataArray type="Float32" Name="time" NumberOfComponents="1" format="ascii" >
0 0.3375 1.07445 1.82181 2.5628 3.31786 4.10454 4.8984 5.69864 6.47677 7.26375 8.07381 8.87059 9.7173 10.5639 11.4059 12.2512 13.1352 13.9757 14.8884 15.7661 16 2.54076 3.73255 5.06486 6.5753 8.31899 10.3813 12.9054 16 3.30056 4.5098 5.86162 7.39418 9.1634 11.2559 13.817 16 4.07134 5.12658 6.30625 7.64365 9.18756 11.0136 13.2485 16 4.8358 5.92856 7.15015 8.53508 10.1339 12.0248 14.3392 16 5.61503 6.91729 8.37309 10.0235 11.9289 14.1824 16 6.42716 7.61145 8.93537 10.4363 12.169 14.2184 16 7.24701 8.42896 9.75028 11.2483 12.9776 15.0229 16 8.07373 9.25089 10.5668 12.0587 13.781 15.818 16 8.87792 10.0163 11.2888 12.7316 14.3971 16 9.69154 10.7912 12.0205 13.4142 15.0231 16 10.5293 11.6278 12.8559 14.2481 15.8553 16 11.3537 12.4832 13.7459 15.1774 16 12.2301 13.2355 14.3594 15.6336 16 13.1067 14.5039 16 13.979 15.0197 16 14.8549 16 15.7715 16 
</DataArray>

</PointData>
<CellData Scalars=" CellData">
<DataArray type="Float32" Name="radius" NumberOfComponents="1" format="ascii" >
0.0351123 0.0278738 0.0268206 0.0294001 0.0254313 0.0319547 0.0259654 0.0262886 0.0241503 0.0281192 0.0291577 0.0292617 0.0242616 0.0332247 0.0289853 0.0283057 0.0265726 0.0248664 
</DataArray>
<DataArray type="Float32" Name="subType" NumberOfComponents="1" format="ascii" >
1 2 2 2 2 2 2 2 2 2 2 2 2 2 2 2 2 2 
</DataArray>
<DataArray type="Float32" Name="creationTime" NumberOfComponents="1" format="ascii" >
0 2.54076 3.30056 4.07134 4.8358 5.61503 6.42716 7.24701 8.07373 8.87792 9.69154 10.5293 11.3537 12.2301 13.1067 13.979 14.8549 15.7715 
</DataArray>

</CellData>
<Points>
<DataArray type="Float32" Name="Coordinates" NumberOfComponents="3" format="ascii" >
0 0 -3 -0.0336514 0.0374239 -3.41488 -0.226076 0.111989 -4.2969 -0.437492 0.198096 -5.17704 -0.443605 0.212287 -6.06924 -0.439175 0.214254 -6.96915 -0.454215 0.247793 -7.89613 -0.40789 0.250162 -8.82099 -0.382054 0.144409 -9.73782 -0.358182 0.0491412 -10.6204 -0.379479 0.0233788 -11.5083 -0.404443 0.0292032 -12.4125 -0.451997 -0.0132601 -13.2901 -0.431669 -0.0680909 -14.2127 -0.368832 -0.0482439 -15.1241 -0.34036 0.0073723 -16.0201 -0.372313 0.158273 -16.8979 -0.33451 0.14383 -17.818 -0.529267 0.233886 -18.6564 -0.560299 0.299908 -19.582 -0.463656 0.415269 -20.4508 -0.454457 0.426825 -20.6836 -0.0336514 0.0374239 -3.41488 0.313853 0.97366 -3.46687 0.706594 1.87467 -3.65109 1.31204 2.63191 -3.89607 1.91466 3.35046 -4.24327 2.63043 3.93634 -4.62328 3.31188 4.52177 -5.06248 4.00839 5.03655 -5.47048 -0.226076 0.111989 -4.2969 -0.00403089 -0.784318 -4.68073 0.183259 -1.52545 -5.32544 0.268168 -2.24024 -6.01961 0.321861 -2.93185 -6.73988 0.426275 -3.61859 -7.45924 0.428644 -4.29722 -8.19372 0.385572 -4.70026 -8.75562 -0.437492 0.198096 -5.17704 -0.245037 1.12764 -4.86256 -0.029109 2.04874 -4.53859 0.211212 2.97093 -4.23557 0.424481 3.91968 -4.00236 0.641374 4.86597 -3.7626 0.761551 5.794 -3.40999 0.742456 6.72238 -3.16304 -0.443605 0.212287 -6.06924 0.530147 0.210048 -6.29684 1.50661 0.245068 -6.50968 2.48524 0.431628 -6.59611 3.46312 0.602584 -6.71662 4.42804 0.71765 -6.95259 5.36998 0.791953 -7.28006 5.86104 0.9048 -7.59063 -0.439175 0.214254 -6.96915 -0.911367 -0.65076 -7.13881 -1.34029 -1.51292 -7.40846 -1.69831 -2.39231 -7.72228 -1.93995 -3.21915 -8.23018 -2.00239 -4.02902 -8.81345 -2.02866 -4.58146 -9.21553 -0.454215 0.247793 -7.89613 0.293311 0.883877 -7.70481 1.00725 1.55644 -7.50999 1.85586 2.08166 -7.44673 2.74886 2.528 -7.38902 3.53582 3.14365 -7.34817 4.05101 3.66478 -7.36072 -0.40789 0.250162 -8.82099 -0.928518 1.10348 -8.79285 -1.41094 1.97128 -8.91197 -1.91964 2.82272 -9.03959 -2.4307 3.59261 -9.42179 -2.85218 4.36539 -9.89631 -2.99792 4.69304 -10.1093 -0.382054 0.144409 -9.73782 -1.36986 0.0255079 -9.83836 -2.35347 -0.107328 -9.96024 -3.33351 -0.28924 -10.0405 -4.3111 -0.418552 -10.2065 -5.25481 -0.233928 -10.481 -5.32943 -0.219189 -10.5082 -0.358182 0.0491412 -10.6204 -0.552166 -0.9227 -10.7542 -0.748542 -1.88906 -10.9203 -0.943324 -2.84948 -11.1194 -1.27265 -3.76361 -11.3558 -1.61708 -4.51482 -11.3939 -0.379479 0.0233788 -11.5083 0.438883 0.592282 -11.4268 1.24877 1.1746 -11.3562 2.05759 1.76067 -11.308 2.7559 2.47595 -11.2806 3.13416 2.85577 -11.289 -0.404443 0.0292032 -12.4125 -1.38498 -0.0209857 -12.6023 -2.35666 0.0899958 -12.8109 -3.29937 0.246929 -13.1053 -4.23691 0.409474 -13.4129 -4.31504 0.421349 -13.4373 -0.451997 -0.0132601 -13.2901 0.000597827 0.877939 -13.3204 0.55459 1.70871 -13.3744 1.16136 2.50073 -13.4417 1.43676 2.93801 -13.4253 -0.431669 -0.0680909 -14.2127 -0.791784 -1.00052 -14.2427 -1.15603 -1.92978 -14.3043 -1.62773 -2.80857 -14.3766 -1.75143 -3.04117 -14.387 -0.368832 -0.0482439 -15.1241 -0.866531 0.764453 -15.4271 -1.34804 1.56101 -15.6629 -0.34036 0.0073723 -16.0201 -1.17324 0.502446 -15.7727 -1.89958 0.891958 -15.5637 -0.372313 0.158273 -16.8979 -0.112331 0.87651 -16.772 -0.33451 0.14383 -17.818 -0.150064 0.164189 -17.8015 
</DataArray>
</Points>
<Lines>
<DataArray type="Int32" Name="connectivity" NumberOfComponents="1" format="ascii" >
0 1 2 3 4 5 6 7 8 9 10 11 12 13 14 15 16 17 18 19 20 21 22 23 24 25 26 27 28 29 30 31 32 33 34 35 36 37 38 39 40 41 42 43 44 45 46 47 48 49 50 51 52 53 54 55 56 57 58 59 60 61 62 63 64 65 66 67 68 69 70 71 72 73 74 75 76 77 78 79 80 81 82 83 84 85 86 87 88 89 90 91 92 93 94 95 96 97 98 99 100 101 102 103 104 105 106 107 108 109 110 111 112 113 114 115 116 117 118 119 
</DataArray>
<DataArray type="Int32" Name="offsets" NumberOfComponents="1" format="ascii" >
22 30 38 46 54 61 68 75 82 88 94 100 105 110 113 116 118 120 
</DataArray>

</Lines>
</Piece>
</PolyData>
</VTKFile>
