<?xml version="1.0"?><VTKFile type="PolyData" version="0.1" byte_order="LittleEndian">
<PolyData>
<Piece NumberOfLines="1141" NumberOfPoints="8421">
<PointData Scalars=" PointData">
<DataArray type="Float32" Name="time" NumberOfComponents="1" format="ascii" >
0 0.0532813 0.501331 1.02641 1.49531 1.97507 2.52388 3.05079 3.4762 3.94383 4.39343 4.87825 5.39498 5.85127 6.3867 6.90552 7.45328 8.01919 8.58286 9.15941 9.78793 10.3782 10.8779 11.4219 12.0147 12.5633 13.1569 13.8109 14.4619 15.0869 15.6238 16.2789 16.9178 17.5713 18.1591 18.9576 19.6505 20.3233 20.9745 21.7317 22.4125 23.2298 23.8149 24.4814 25.2047 26.0187 26.6257 27.35 28.2622 28.9273 29.5295 30.2045 31.1643 31.9915 32.82 33.6388 34.5841 35.3427 36.3162 37.1561 38.2422 39.2479 40.178 41.3762 42.4302 43.4833 44.8112 46 0.102265 0.157804 0.864931 1.70154 2.55126 3.25147 4.22099 5.04925 6.06519 7.03096 7.90738 8.88054 9.76307 10.8523 11.82 13.0223 14.0859 15.1926 16.2886 17.1587 18.1645 19.4426 20.5383 21.8108 22.9636 24.2943 25.3846 26.6574 28.2749 29.6767 31.232 32.7026 34.032 35.5678 37.291 38.7204 40.3692 41.8542 43.7831 45.6132 46 9.2461 11.5103 14.0415 16.9112 20.2239 24.1421 28.9375 35.1199 43.8335 46 10.0892 12.146 14.4454 17.0521 20.0615 23.6207 27.9769 33.593 41.5084 46 11.0895 13.149 15.4513 18.0614 21.0746 24.6385 29.0003 34.6236 42.5492 46 12.1088 14.2088 16.5564 19.2179 22.2903 25.9243 30.3719 36.1059 44.1874 46 12.9512 14.8574 16.9883 19.4041 22.1929 25.4914 29.5285 34.7331 42.0687 46 14.1215 16.351 18.8433 21.6688 24.9306 28.7886 33.5103 39.5977 46 15.1249 17.1851 19.4883 22.0993 25.1136 28.6787 33.042 38.6673 46 16.3604 18.5382 20.9728 23.7329 26.9192 30.6878 35.3002 41.2466 46 17.5397 19.8309 22.3923 25.2962 28.6485 32.6134 37.466 43.7221 46 18.6142 20.8049 23.2538 26.0303 29.2354 33.0263 37.666 43.6476 46 19.8121 22.0862 24.6284 27.5105 30.8376 34.7728 39.5891 45.7984 46 20.903 23.018 25.3824 28.063 31.1575 34.8175 39.2969 45.072 46 22.2555 24.3224 26.633 29.2525 32.2765 35.8532 40.2306 45.8742 46 23.4629 25.6504 28.0959 30.8683 34.0688 37.8542 42.4872 46 24.9708 27.2987 29.901 32.8513 36.2571 40.2854 45.2156 46 26.3123 28.804 31.5895 34.7474 38.393 42.7047 46 27.7159 29.8538 32.2437 34.9532 38.0811 41.7806 46 29.1139 31.1351 33.3945 35.956 38.9131 42.4106 46 30.2298 32.1456 34.2873 36.7154 39.5184 42.8336 46 31.5262 33.9673 36.6961 39.7898 43.3612 46 33.1842 35.4738 38.0335 40.9353 44.2852 46 34.6155 36.798 39.2379 42.004 45.1972 46 36.2893 38.6674 41.3259 44.3398 46 37.8172 40.5054 43.5105 46 39.5949 41.7479 44.1548 46 41.0628 43.1194 45.4185 46 42.7903 44.9799 46 45.0081 46 0.55075 0.597266 1.35085 2.09706 3.05863 3.94199 4.80694 5.77566 6.70003 7.51759 8.53628 9.36151 10.3389 11.2113 12.2286 13.1102 14.0428 14.8305 15.8354 16.9218 18.0281 19.2404 20.4526 21.6014 22.6629 23.8436 24.9755 26.0891 27.5345 28.9766 30.3329 31.591 33.314 34.6814 35.9994 37.7882 39.3538 41.3424 43.2471 45.2075 46 7.71071 10.0345 12.6323 15.5774 18.9773 22.9985 27.9201 34.2651 43.2079 46 8.58661 10.6313 12.917 15.5084 18.4999 22.0381 26.3685 31.9514 39.8201 46 9.45616 11.6261 14.0519 16.8021 19.9769 23.7319 28.3277 34.2527 42.6035 46 10.58 12.7424 15.1597 17.9003 21.0641 24.806 29.3857 35.29 43.6116 46 11.6159 14.0076 16.6814 19.7127 23.212 27.3508 32.4164 38.947 46 12.6334 14.3551 16.2797 18.4616 20.9805 23.9597 27.606 32.3068 38.9323 46 13.7769 15.738 17.9303 20.4157 23.2849 26.6784 30.8317 36.1863 43.7332 46 14.8721 17.05 19.4847 22.245 25.4315 29.2003 33.813 39.7598 46 15.844 17.7233 19.8241 22.2059 24.9555 28.2076 32.1878 37.3191 44.5514 46 17.0594 19.0019 21.1734 23.6353 26.4773 29.8387 33.9527 39.2566 46 18.0477 20.2651 22.7438 25.554 28.7981 32.6351 37.3312 43.3855 46 19.2228 21.9468 24.9919 28.4441 32.4295 37.1431 42.9122 46 20.2757 22.3481 24.6648 27.2913 30.3233 33.9095 38.2986 43.9571 46 21.5087 23.7408 26.2362 29.0651 32.3309 36.1936 40.9211 46 22.5818 25.0758 27.8639 31.0248 34.6738 38.9896 44.2717 46 23.7217 25.694 27.8988 30.3984 33.284 36.6969 40.874 46 24.6883 26.6502 28.8434 31.3298 34.2001 37.595 41.75 46 25.927 28.0706 30.4669 33.1837 36.3199 40.0293 44.5693 46 27.2729 29.5939 32.1886 35.1302 38.5261 42.5425 46 28.6513 30.5485 32.6694 35.0738 37.8496 41.1326 45.1507 46 30.1707 32.5847 35.2834 38.3429 41.8748 46 31.7002 33.5753 35.6715 38.048 40.7915 44.0363 46 33.1592 35.6172 38.3651 41.4804 45.0767 46 34.5158 36.6036 38.9375 41.5835 44.6381 46 36.035 37.8338 39.8448 42.1246 44.7565 46 37.5015 39.6876 42.1315 44.9021 46 38.9547 41.2113 43.7339 46 40.8566 43.2344 45.8925 46 42.7726 44.8772 46 44.5925 46 1.07635 1.11849 1.94203 2.75942 3.52532 4.28629 4.99914 5.74184 6.68957 7.69376 8.65506 9.50867 10.4759 11.3679 12.4187 13.4747 14.4685 15.4791 16.5172 17.4052 18.3575 19.427 20.469 21.5066 22.7593 24.0843 25.4398 26.8148 28.1587 29.4008 30.6753 31.9459 33.3745 34.6803 36.4881 38.0651 39.8599 41.6998 43.224 45.2218 46 11.6479 13.5869 15.7545 18.212 21.0489 24.4043 28.511 33.8054 41.2675 46 12.652 14.7582 17.1127 19.782 22.8634 26.5081 30.9687 36.7195 44.8247 46 13.6521 15.8827 18.3763 21.2033 24.4668 28.3268 33.051 39.1416 46 14.5923 16.6606 18.9728 21.5941 24.6203 28.1994 32.5799 38.2274 46 15.5294 17.7835 20.3033 23.16 26.4578 30.3583 35.1321 41.2867 46 16.4102 18.3476 20.5135 22.969 25.8036 29.1563 33.2596 38.5497 46 17.3308 19.4116 21.7377 24.3748 27.4192 31.0198 35.4267 41.1082 46 18.51 20.4456 22.6094 25.0625 27.8944 31.2438 35.3431 40.6281 46 19.7652 21.7122 23.8887 26.3563 29.2049 32.5741 36.6977 42.0139 46 20.9723 22.9291 25.1167 27.5968 30.4598 33.8461 37.9905 43.3336 46 22.0489 24.1165 26.428 29.0485 32.0736 35.6516 40.0307 45.6763 46 23.2742 25.7444 28.5059 31.6366 35.2507 39.5252 44.7569 46 24.4095 26.6963 29.2527 32.1509 35.4966 39.4537 44.2968 46 25.7539 27.7421 29.9647 32.4845 35.3934 38.8339 43.0447 46 27.1122 29.2223 31.5811 34.2553 37.3425 40.9939 45.4628 46 28.3977 30.9678 33.841 37.0984 40.8587 45.3062 46 29.7122 31.9072 34.3609 37.1428 40.3542 44.1525 46 31.0704 33.4067 36.0185 38.9795 42.3977 46 32.2387 34.4972 37.022 39.8844 43.1887 46 33.4985 35.4164 37.5604 39.9911 42.7972 46 34.9221 37.0805 39.4934 42.229 45.3869 46 36.3185 38.3625 40.6475 43.238 46 37.718 40.2591 43.0998 46 39.4207 41.8135 44.4885 46 41.2376 43.2646 45.5306 46 43.114 45.5323 46 45.0363 46 1.54571 1.60022 2.56365 3.45295 4.39406 5.34215 6.17276 7.27467 8.29716 9.36572 10.243 11.2519 12.3719 13.461 14.4926 15.4764 16.4991 17.655 18.8389 20.1508 21.103 22.017 23.1602 24.4891 25.8195 27.0408 28.3445 29.4316 30.8376 32.2369 33.5672 35.0231 36.8709 38.6497 40.2249 42.147 43.9386 45.8539 46 9.83485 12.1041 14.641 17.517 20.8371 24.764 29.5701 35.7663 44.4993 46 10.9609 13.0147 15.3107 17.9136 20.9184 24.4724 28.8221 34.4299 42.3336 46 12.0035 13.8866 15.9918 18.3785 21.1336 24.3924 28.3807 33.5226 40.7696 46 13.11 15.0774 17.2767 19.7701 22.6486 26.053 30.2198 35.5916 43.1628 46 14.2283 16.2133 18.4324 20.9482 23.8525 27.2876 31.4917 36.9118 44.551 46 15.211 17.6176 20.308 23.3582 26.8793 31.0439 36.141 42.7123 46 16.519 18.8201 21.3925 24.3088 27.6755 31.6574 36.5309 42.8139 46 17.7373 20.223 23.0017 26.1519 29.7886 34.0898 39.3542 46 19.0154 21.0969 23.4239 26.0619 29.1074 32.7093 37.1178 42.8012 46 20.0685 22.1849 24.5508 27.233 30.3294 33.9917 38.474 44.2526 46 21.284 23.1535 25.2434 27.6128 30.348 33.5831 37.5426 42.6471 46 22.6388 24.8372 27.2947 30.0809 33.2973 37.1014 41.7574 46 23.9621 25.9804 28.2366 30.7945 33.7473 37.2398 41.5143 46 25.2211 27.175 29.3592 31.8355 34.6941 38.0752 42.2133 46 26.4267 28.8975 31.6597 34.7911 38.4062 42.6818 46 27.6854 30.1453 32.8953 36.0129 39.6119 43.8687 46 29.1149 31.1741 33.4762 36.0861 39.0991 42.6626 46 30.5867 32.8038 35.2823 38.0922 41.336 45.1726 46 32.227 34.5155 37.0738 39.9741 43.3224 46 33.424 35.5357 37.8964 40.5728 43.6624 46 34.5783 36.6674 39.0028 41.6504 44.7068 46 36.0295 37.9683 40.1358 42.593 45.4297 46 37.727 39.8766 42.2795 45.0038 46 39.4386 41.5864 43.9875 46 41.0206 42.9878 45.1869 46 42.7216 45.1653 46 44.1498 46 2.02595 2.07331 2.86232 3.59536 4.45094 5.33805 6.0313 6.76554 7.63187 8.53072 9.48688 10.3429 11.3496 12.3656 13.4389 14.7358 15.7515 16.6845 17.634 18.7128 19.7314 20.6471 21.9979 23.4756 24.7787 26.1073 27.4808 28.7525 29.9262 31.2729 32.8426 34.1983 35.6073 37.3679 38.729 40.5277 42.257 44.3926 46 11.0882 13.3746 15.9305 18.8283 22.1734 26.1299 30.9723 37.2152 46 12.0284 14.0214 16.2494 18.7753 21.6913 25.1401 29.3611 34.803 42.4729 46 12.9044 14.9688 17.2766 19.8929 22.9133 26.4856 30.8577 36.4944 44.4389 46 13.93 16.1354 18.601 21.3961 24.6229 28.4394 33.1104 39.1324 46 14.9969 17.1642 19.5871 22.334 25.505 29.2555 33.8458 39.7637 46 15.8333 17.6083 19.5926 21.8422 24.4392 27.5107 31.27 36.1166 42.9475 46 16.7216 18.7984 21.12 23.752 26.7905 30.3842 34.7826 40.4531 46 17.7733 20.2026 22.9184 25.9974 29.5517 33.7557 38.9008 45.5341 46 18.8684 21.2081 23.8237 26.7889 30.2121 34.2609 39.2161 45.6046 46 20.0379 21.9691 24.128 26.5755 29.401 32.7428 36.8329 42.1059 46 21.0891 23.1901 25.5389 28.2016 31.2755 34.9112 39.3609 45.0976 46 22.3305 24.1337 26.1495 28.4348 31.073 34.1934 38.0124 42.936 46 23.5891 25.4091 27.4436 29.7501 32.4128 35.5622 39.4166 44.3859 46 24.9252 27.311 29.978 33.0016 36.4921 40.6205 45.6733 46 26.5489 28.6305 30.9575 33.5957 36.6413 40.2434 44.6521 46 27.8277 29.6261 31.6365 33.9157 36.5469 39.6589 43.4677 46 29.0083 31.2344 33.723 36.5443 39.8012 43.6533 46 30.2156 31.8256 33.6256 35.6661 38.0218 40.808 44.218 46 31.5947 33.7745 36.2114 38.9741 42.1633 45.9355 46 32.9042 35.717 38.8615 42.4264 46 34.0879 36.8887 40.0198 43.5695 46 35.8453 38.2032 40.8392 43.8276 46 37.784 39.8999 42.2652 44.9468 46 39.5082 41.9382 44.6546 46 41.281 44.0516 46 43.1299 45.2506 46 44.8572 46 2.57531 2.62311 3.35111 4.00246 4.8163 5.5588 6.28373 7.01534 7.72466 8.48978 9.32509 10.0283 10.9589 11.687 12.6183 13.5441 14.4259 15.4813 16.4574 17.4091 18.4024 19.3849 20.3485 21.4515 22.5924 23.6323 24.6973 25.8419 27.1291 28.2804 29.5077 30.8882 32.308 33.6438 35.2322 36.8601 38.4217 39.8003 41.6287 43.2586 44.9801 46 9.70652 11.6715 13.8682 16.3586 19.2336 22.6339 26.7956 32.161 39.723 46 10.5603 12.8588 15.4284 18.3416 21.7046 25.6822 30.5504 36.8265 45.6723 46 11.3262 13.2672 15.4371 17.8972 20.7371 24.096 28.207 33.507 40.9769 46 12.2859 14.719 17.4391 20.5228 24.0826 28.2931 33.4462 40.0898 46 13.1643 15.4993 18.1097 21.0691 24.4855 28.5262 33.4716 39.8474 46 14.0244 16.2573 18.7533 21.5831 24.8499 28.7137 33.4426 39.5392 46 14.8952 16.863 19.0627 21.5566 24.4355 27.8406 32.0081 37.381 44.9536 46 15.7421 17.8476 20.2014 22.8699 25.9505 29.5941 34.0534 39.8026 46 16.6585 18.6311 20.8363 23.3364 26.2226 29.6362 33.8141 39.2003 46 17.6625 19.6231 21.8148 24.2996 27.168 30.5607 34.713 40.0662 46 18.5107 20.4466 22.6107 25.0642 27.8966 31.2465 35.3465 40.6324 46 19.6375 21.8322 24.2857 27.0672 30.2782 34.076 38.7242 44.7168 46 20.5226 22.9454 25.6538 28.7243 32.269 36.4615 41.5927 46 21.6592 24.1804 26.9988 30.1941 33.8828 38.2455 43.5851 46 22.7944 24.7506 26.9374 29.4166 32.2787 35.6638 39.8068 45.1481 46 23.8806 26.5962 29.632 33.0737 37.0469 41.7461 46 25.1874 27.3316 29.7286 32.4461 35.5833 39.2937 43.835 46 26.4025 28.4235 30.6829 33.2443 36.2012 39.6986 43.979 46 27.5936 29.5323 31.6997 34.1568 36.9934 40.3483 44.4544 46 28.8437 30.9189 33.2388 35.8689 38.9051 42.4962 46 30.0873 32.0265 34.1943 36.652 39.4892 42.845 46 31.3142 33.4232 35.7809 38.4538 41.5395 45.1891 46 32.7275 34.8721 37.2695 39.9875 43.1252 46 34.1998 36.1149 38.2557 40.6828 43.4847 46 35.5516 38.0297 40.8001 43.9409 46 36.9458 39.1331 41.5784 44.3506 46 38.456 40.8052 43.4313 46 40.1693 42.5961 45.3091 46 41.7157 43.8243 46 43.3798 45.8703 46 45.2713 46 3.10276 3.14841 3.9405 4.73441 5.42453 6.2748 7.06418 7.98492 8.83193 9.74706 10.6393 11.636 12.4948 13.5364 14.6109 15.4613 16.5351 17.6037 18.6555 19.8663 21.0193 22.2482 23.4673 24.4274 25.6217 26.9684 28.1257 29.3699 30.3562 31.6244 32.9668 34.4048 35.7882 37.3377 38.9833 40.6067 42.141 44.3179 46 13.2864 15.3577 17.6732 20.2983 23.3287 26.913 31.2998 36.9553 44.9264 46 14.2511 16.5798 19.183 22.1343 25.5413 29.5709 34.5028 40.8611 46 15.2213 17.2016 19.4153 21.925 24.8223 28.249 32.443 37.8499 45.4706 46 16.0674 17.6881 19.4998 21.5538 23.9249 26.7294 30.1617 34.5869 40.8237 46 17.1134 19.2017 21.5363 24.1831 27.2386 30.8524 35.2754 40.9776 46 18.088 20.1881 22.5358 25.1974 28.27 31.9041 36.3519 42.086 46 19.2293 21.3854 23.7958 26.5285 29.6832 33.4144 37.981 43.8683 46 20.2835 22.4823 24.9404 27.7272 30.9443 34.7493 39.4062 45.41 46 21.4273 23.477 25.7684 28.3661 31.365 34.9119 39.253 44.8496 46 22.5474 25.057 27.8625 31.0431 34.7149 39.0576 44.3727 46 23.8046 26.1079 28.6827 31.6017 34.9716 38.9572 43.8352 46 24.893 27.3049 30 33.0567 36.5853 40.7587 45.8665 46 26.2195 28.5867 31.233 34.2332 37.6966 41.793 46 27.5958 29.7461 32.1498 34.875 38.021 41.7419 46 28.6908 31.0791 33.7491 36.776 40.2704 44.4033 46 30.0809 32.1476 34.4581 37.0775 40.1013 43.6778 46 31.4728 33.9771 36.7767 39.9506 43.6145 46 32.8515 35.0076 37.4181 40.1508 43.3054 46 34.4495 36.7105 39.2379 42.1034 45.4113 46 35.9826 37.8333 39.9023 42.2479 44.9557 46 37.6292 39.6005 41.8043 44.3028 46 39.276 41.4615 43.9046 46 40.5826 42.8858 45.4606 46 42.2205 44.2317 46 44.0846 46 45.7017 46 3.5286 3.58819 4.54235 5.42583 6.2967 7.17767 8.19913 9.3284 10.3281 11.4092 12.4632 13.5505 14.7423 15.7194 16.9183 17.9186 19.2426 20.3899 21.5842 22.8794 24.2063 25.509 26.6372 28.1218 29.4451 30.8545 32.3515 33.7921 35.4841 37.0262 38.6385 40.2866 42.0151 43.5216 45.2034 46 13.0508 15.1972 17.5965 20.3167 23.457 27.1711 31.7168 37.5773 45.8371 46 14.1802 16.4278 18.9403 21.7888 25.0771 28.9664 33.7265 39.8633 46 15.2291 17.4889 20.0151 22.8791 26.1854 30.0958 34.8818 41.0521 46 16.266 18.5985 21.2059 24.162 27.5745 31.6107 36.5506 42.9192 46 17.3181 19.2471 21.4036 23.8483 26.6706 30 34.0833 39.3467 46 18.542 20.6315 22.9675 25.6157 28.6729 32.2888 36.7142 42.4197 46 19.9002 21.7 23.7119 25.9929 28.626 31.7404 35.5521 40.4662 46 21.1073 23.0436 25.2083 27.6623 30.4953 33.846 37.947 43.234 46 22.4176 24.7598 27.3783 30.3468 33.7737 37.8269 42.7876 46 23.7003 25.9871 28.5436 31.442 34.7878 38.7452 43.5886 46 25.0289 26.7655 28.7069 30.9079 33.4487 36.4538 40.1318 44.8735 46 26.492 28.9386 31.6737 34.7744 38.354 42.5877 46 27.6967 30.1979 32.994 36.164 39.8235 44.1518 46 29.1817 31.2473 33.5564 36.1742 39.1963 42.7706 46 30.4264 32.8327 35.5227 38.5723 42.0929 46 32.0824 34.15 36.4613 39.0817 42.1066 45.6844 46 33.5254 35.742 38.2201 41.0294 44.2726 46 35.0356 37.0484 39.2985 41.8494 44.7943 46 36.683 38.7264 41.0108 43.6006 46 38.3817 40.5826 43.043 45.8324 46 40.0603 41.9275 44.0149 46 41.5232 43.6644 46 43.4617 45.4402 46 45.2031 46 3.99672 4.04752 4.87859 5.72507 6.69346 7.59676 8.39476 9.49733 10.4347 11.341 12.4263 13.3173 14.0964 15.0859 16.3526 17.3148 18.266 19.4581 20.672 21.7961 22.9189 23.9648 25.2702 26.4548 27.7302 28.9883 30.4072 31.7784 33.0377 34.3955 35.7486 37.4318 39.0672 40.7879 42.6511 44.7047 46 13.4151 15.9662 18.8181 22.0514 25.7839 30.1985 35.6015 42.5673 46 14.4028 16.7163 19.3026 22.2346 25.6195 29.6229 34.5227 40.8397 46 15.4117 17.2575 19.321 21.6603 24.3609 27.555 31.4643 36.5043 43.6077 46 16.5697 19.0911 21.9098 25.1053 28.7943 33.1575 38.4976 45.3821 46 17.6535 20.2371 23.1253 26.3997 30.1797 34.6505 40.1223 46 18.614 21.0496 23.7725 26.8594 30.4229 34.6377 39.7963 46 19.9458 22.2183 24.7589 27.6391 30.9641 34.8967 39.7098 45.915 46 21.0824 23.3437 25.8716 28.7375 32.0459 35.959 40.7482 46 22.1855 24.6422 27.3885 30.502 34.0963 38.3474 43.5503 46 23.5116 25.6151 27.9665 30.6324 33.7099 37.3498 41.8047 46 24.6048 27.0263 29.7334 32.8024 36.3452 40.5356 45.6642 46 25.5641 27.6284 29.9362 32.5525 35.5729 39.1452 43.5174 46 26.7869 29.1992 31.896 34.9533 38.4828 42.6572 46 28.36 30.4292 32.7422 35.3646 38.3919 41.9724 46 29.5609 31.9966 34.7195 37.8064 41.37 45.5849 46 30.7535 32.808 35.1048 37.7087 40.7147 44.27 46 32.2554 34.6695 37.3682 40.4277 43.9597 46 33.7938 36.1762 38.8396 41.8591 45.3448 46 35.2267 37.1661 39.3342 41.7922 44.6298 46 36.666 38.9073 41.4128 44.2533 46 38.0144 40.1447 42.5261 45.2259 46 39.708 41.7633 44.0608 46 41.2556 43.4209 45.8415 46 42.9334 44.7719 46 44.6006 46 4.44679 4.49319 5.18276 5.83956 6.59607 7.24658 8.11758 8.94191 9.86895 10.7049 11.502 12.1905 13.1441 14.1838 15.1365 16.0705 17.0228 17.876 18.8464 20.0768 21.0062 22.0716 23.0336 24.2302 25.3167 26.6424 27.9668 29.0978 30.3743 31.5018 32.7549 33.7539 34.9441 36.6954 38.2973 39.8514 41.7898 43.5083 44.7939 46 11.5083 13.5957 15.9291 18.5746 21.6285 25.2406 29.6614 35.3608 43.3937 46 12.3128 14.5733 17.1004 19.9653 23.2726 27.1843 31.9719 38.1442 46 13.0809 15.3262 17.8363 20.682 23.9671 27.8526 32.608 38.7388 46 13.9679 15.9821 18.2337 20.7864 23.7332 27.2186 31.4844 36.9839 44.7351 46 14.7327 16.7474 18.9997 21.5531 24.5008 27.9871 32.2541 37.7552 45.5085 46 15.7598 18.0627 20.6371 23.5558 26.9252 30.9103 35.7877 42.0757 46 16.735 18.6634 20.8192 23.2631 26.0845 29.4215 33.5057 38.771 46 17.8357 19.6849 21.7522 24.0959 26.8015 30 33.9162 38.9648 46 18.8318 20.7258 22.8431 25.2435 28.0145 31.292 35.3033 40.4747 46 19.7849 22.1123 24.7141 27.6638 31.069 35.0965 40.0257 46 20.6107 22.3806 24.3592 26.6023 29.1918 32.2546 36.003 40.8356 46 21.7588 23.857 26.2025 28.8616 31.9314 35.5622 40.0058 45.7347 46 23.0161 25.1115 27.454 30.1098 33.1755 36.8016 41.2396 46 24.1736 26.2308 28.5306 31.1378 34.1477 37.7076 42.0646 46 25.3132 27.3259 29.5759 32.1267 35.0714 38.5543 42.817 46 26.4807 28.4553 30.6628 33.1654 36.0544 39.4715 43.6535 46 27.5315 29.5899 31.891 34.4998 37.5114 41.0733 45.4328 46 28.7321 31.0747 33.6936 36.6627 40.0902 44.1442 46 30.2631 32.6533 35.3254 38.3548 41.8519 45.9881 46 31.4263 33.6582 36.1533 38.982 42.2475 46 32.7673 35.1475 37.8083 40.8249 44.3073 46 33.985 36.0337 38.3239 40.9203 43.9177 46 35.5095 37.5062 39.7385 42.2691 45.1906 46 36.9033 38.9444 41.2261 43.8129 46 38.6169 40.8731 43.3954 46 40.3435 42.2499 44.3811 46 41.8303 44.0675 46 43.5224 46 45.0301 46 4.93213 4.9729 5.66771 6.45515 7.15726 7.76536 8.54744 9.3581 9.98918 10.7928 11.4858 12.2471 13.1216 13.9109 14.6858 15.4281 16.3695 17.3031 18.3643 19.2889 20.2171 21.3903 22.3823 23.3364 24.4084 25.4566 26.5641 27.7699 28.8353 30.2742 31.58 32.8396 34.1107 35.5593 37.2375 38.4984 40.1167 41.6536 43.2822 45.3619 46 11.1881 13.4814 16.0451 18.9515 22.3067 26.2751 31.132 37.3937 46 11.9911 14.2937 16.8678 19.7862 23.1551 27.1397 32.0165 38.3037 46 12.9035 14.9934 17.3297 19.9784 23.036 26.6525 31.0787 36.785 44.8277 46 13.7193 15.9438 18.4306 21.2499 24.5045 28.3539 33.0651 39.139 46 14.4276 16.4753 18.7643 21.3594 24.3552 27.8986 32.2352 37.8262 45.7062 46 15.341 17.4399 19.7862 22.4462 25.517 29.149 33.5942 39.325 46 16.2908 19.0184 22.0676 25.5246 29.5153 34.2353 40.0122 46 17.0323 18.9252 21.0413 23.4403 26.2098 29.4854 33.4944 38.6629 45.9475 46 17.9793 20.0061 22.2718 24.8405 27.8058 31.3131 35.6056 41.1397 46 18.7984 21.1234 23.7226 26.6693 30.071 34.0944 39.0187 45.3671 46 19.701 21.5896 23.7009 26.0946 28.8578 32.126 36.1259 41.2827 46 20.7416 23.1332 25.8068 28.8378 32.3369 36.4754 41.5406 46 21.6843 23.9382 26.4578 29.3143 32.6118 36.512 41.2855 46 22.6131 24.6181 26.8596 29.4008 32.3344 35.8041 40.0506 45.5254 46 23.5059 25.6285 28.0014 30.6916 33.7972 37.4704 41.9659 46 24.6426 26.8968 29.4167 32.2735 35.5715 39.4722 44.2462 46 25.7752 27.8324 30.1322 32.7395 35.7494 39.3094 43.6664 46 27.0689 29.1985 31.5791 34.278 37.3936 41.0787 45.5888 46 28.2019 30.3446 32.7399 35.4555 38.5904 42.2982 46 29.3449 31.4745 33.8553 36.5544 39.6703 43.3556 46 30.7977 33.3569 36.2178 39.4613 43.2056 46 32.0336 34.0766 36.3606 38.9499 41.939 45.4744 46 33.229 35.5379 38.1189 41.0451 44.4231 46 34.5802 36.5282 38.7059 41.1748 44.0249 46 35.9099 38.2111 40.7837 43.7002 46 37.3244 40.1297 43.2656 46 38.8762 41.0795 43.5425 46 40.2577 42.3105 44.6053 46 42.14 44.0529 46 43.8653 46 45.5458 46 5.4494 5.49279 6.27044 7.19488 8.11742 9.12548 10.015 10.9845 11.9593 13.2014 14.1631 15.3449 16.2602 17.3014 18.3003 19.2698 20.619 21.9491 23.0729 24.0809 25.2596 26.4886 27.9266 29.2419 30.7705 32.2372 33.6147 35.2771 36.9811 38.7917 40.1545 41.8441 43.6189 45.3858 46 14.5697 16.6463 18.9677 21.5996 24.6378 28.2313 32.6294 38.2995 46 15.4829 17.3987 19.5405 21.9685 24.7715 28.0868 32.1443 37.3754 44.7482 46 16.5714 18.5035 20.6634 23.1121 25.9389 29.2823 33.3743 38.6497 46 17.6609 19.8796 22.36 25.1719 28.4181 32.2576 36.9567 43.0149 46 18.855 20.8427 23.0649 25.5841 28.4923 31.932 36.1418 41.5693 46 19.912 22.1395 24.6295 27.4525 30.7115 34.566 39.2835 45.3654 46 21.0676 23.2878 25.7698 28.5836 31.8319 35.6738 40.376 46 22.2334 24.5824 27.2083 30.1853 33.6221 37.6869 42.6618 46 23.7247 25.9881 28.5183 31.3868 34.6983 38.6149 43.4085 46 24.8837 26.7486 28.8335 31.1971 33.9256 37.1528 41.1026 46 26.3137 28.4104 30.7543 33.4116 36.4792 40.1074 44.548 46 27.4256 29.5868 32.0029 34.742 37.904 41.6439 46 28.6951 30.9122 33.3906 36.2004 39.4441 43.2806 46 29.918 32.0017 34.3311 36.9719 40.0206 43.6263 46 31.1094 33.3062 35.762 38.5462 41.7603 45.5618 46 32.7754 35.1274 37.7566 40.7375 44.1786 46 34.427 36.5839 38.9951 41.7286 44.8843 46 35.8299 38.1507 40.745 43.6863 46 37.0941 39.034 41.2025 43.6611 46 38.5798 40.7903 43.2615 46 40.1375 41.9947 44.0708 46 41.9718 44.0034 46 43.661 45.9622 46 45.6383 46 5.90619 5.95551 6.88755 7.75617 8.59059 9.54211 10.597 11.3363 12.2354 13.0699 13.8488 14.9936 15.8406 16.7391 17.7394 18.9089 20.0276 21.0151 21.928 23.037 24.1214 25.1681 26.3549 27.5939 28.9819 30.3495 31.659 32.9143 34.3851 35.7636 37.2861 38.6404 39.7788 41.357 43.1296 44.8168 46 14.475 16.407 18.5668 21.0154 23.8421 27.1853 31.2772 36.5525 43.9875 46 15.5785 18.2534 21.2438 24.634 28.5476 33.1765 38.8419 46 16.6102 18.4857 20.5822 22.9591 25.7031 28.9484 32.9205 38.0413 45.2587 46 17.6045 19.4774 21.5711 23.9448 26.685 29.9259 33.8925 39.0063 46 18.7422 21.1088 23.7544 26.7538 30.2163 34.3116 39.3239 45.7858 46 20.0085 22.4245 25.1254 28.1874 31.7222 35.903 41.0199 46 20.899 23.0156 25.3817 28.0642 31.161 34.8236 39.3064 45.0856 46 21.9857 24.2509 26.7832 29.6541 32.9683 36.8882 41.6857 46 22.9978 25.2134 27.6901 30.498 33.7395 37.5734 42.2657 46 23.9458 26.3806 29.1025 32.1883 35.7506 39.9639 45.1206 46 25.345 27.8583 30.668 33.8533 37.5305 41.8797 46 26.3846 28.6954 31.2788 34.2075 37.5885 41.5873 46 27.4919 29.4407 31.6192 34.0891 36.9403 40.3125 44.4398 46 28.73 31.4001 34.3849 37.7689 41.6754 46 30.1851 32.3849 34.844 37.632 40.8505 44.6572 46 31.5847 33.5142 35.6712 38.1166 40.9396 44.2785 46 32.8266 35.1578 37.7639 40.7184 44.1292 46 33.9803 36.4814 39.2773 42.447 46 35.3894 37.5972 40.0653 42.8635 46 36.7752 39.1622 41.8305 44.8556 46 38.1208 40.4577 43.0701 46 39.6563 42.0106 44.6425 46 41.2707 43.3122 45.5944 46 43.0936 45.3272 46 44.9054 46 6.4422 6.4871 7.16171 8.02101 8.89253 9.77134 10.4791 11.3933 12.2645 13.1564 14.1238 14.8912 15.7999 16.7508 17.6917 18.7291 19.8597 20.8037 21.878 22.8462 23.9049 24.8679 25.9092 27.0761 28.2233 29.6426 30.9509 32.256 33.3248 34.5744 36.0898 37.7198 38.9628 40.5635 42.2784 43.8088 45.7416 46 13.482 15.4087 17.5625 20.0044 22.8233 26.1573 30.2378 35.4985 42.9131 46 14.2626 16.4346 18.8627 21.6154 24.7932 28.5517 33.1518 39.0823 46 15.2595 16.9757 18.8942 21.0692 23.5801 26.5499 30.1846 34.8705 41.475 46 16.2734 18.2458 20.4507 22.9504 25.8361 29.2492 33.4265 38.8119 46 17.2989 19.6321 22.2403 25.1973 28.6109 32.6483 37.5896 43.9602 46 18.1272 20.2054 22.5287 25.1626 28.2033 31.7996 36.2011 41.8757 46 19.2 21.237 23.5141 26.0958 29.0761 32.601 36.9152 42.4771 46 20.2257 22.3774 24.7828 27.5098 30.6579 34.3813 38.9384 44.8135 46 21.2792 23.3576 25.6811 28.3153 31.3562 34.9528 39.3547 45.0297 46 22.4259 24.7068 27.2566 30.1473 33.4844 37.4313 42.262 46 23.3387 25.6408 28.2143 31.132 34.5001 38.4838 43.3595 46 24.423 26.5755 28.9817 31.7097 34.859 38.5837 43.1425 46 25.5621 27.4939 29.6535 32.1019 34.9283 38.2713 42.3627 46 26.6935 28.8822 31.329 34.1029 37.3051 41.0925 45.7279 46 27.9463 30.1959 32.7107 35.5618 38.8532 42.746 46 29.3181 31.4267 33.7839 36.4563 39.5413 43.1901 46 30.4689 32.4103 34.5807 37.0412 39.8817 43.2413 46 31.7844 33.6193 35.6705 37.996 40.6805 43.8557 46 32.9758 35.2763 37.848 40.7636 44.1294 46 34.2851 36.4285 38.8245 41.541 44.6769 46 35.4818 37.5266 39.8125 42.404 45.3957 46 36.7826 39.095 41.6801 44.6108 46 38.2488 40.1104 42.1915 44.5508 46 39.6991 41.8215 44.1942 46 41.5064 43.89 46 43.1854 45.2485 46 44.8735 46 6.96159 7.01697 7.81339 8.57475 9.36128 10.0639 10.8569 11.7155 12.5377 13.486 14.5039 15.3263 16.3143 17.1985 18.1216 18.9748 20.1045 21.1534 22.1433 23.0128 24.1733 25.1726 26.2648 27.652 28.9419 30.233 31.247 32.3143 33.3581 34.7121 36.2006 37.431 39.3263 40.9996 42.8453 44.5371 46 17.1002 18.9243 20.9634 23.2753 25.944 29.1006 32.9638 37.9444 44.9642 46 18.0651 20.0439 22.256 24.7639 27.6591 31.0833 35.2743 40.6773 46 18.9904 21.0659 23.386 26.0164 29.053 32.6445 37.0401 42.707 46 19.9493 21.9212 24.1255 26.6246 29.5096 32.9217 37.0979 42.482 46 20.8087 22.8749 25.1848 27.8035 30.8266 34.4022 38.7783 44.4201 46 21.7815 23.9154 26.3008 29.0051 32.127 35.8195 40.3387 46 22.8387 25.2427 27.9302 30.977 34.4942 38.6542 43.7457 46 23.8549 25.7272 27.8203 30.1933 32.9327 36.1727 40.1381 45.2504 46 25.0315 27.2457 29.721 32.5273 35.7668 39.5984 44.288 46 26.3003 28.3697 30.683 33.3057 36.3334 39.9144 44.2971 46 27.3298 29.3488 31.6058 34.1646 37.1186 40.6124 44.8884 46 28.572 30.5707 32.8052 35.3384 38.2628 41.7215 45.9548 46 29.6888 31.7057 33.9603 36.5165 39.4674 42.9575 46 30.8599 32.7999 34.9687 37.4273 40.2657 43.6228 46 31.9474 34.0403 36.3799 39.0323 42.0942 45.7158 46 33.3949 35.644 38.1582 41.0087 44.2992 46 34.7466 36.6131 38.6997 41.0653 43.7962 46 36.0296 38.0883 40.3898 42.9989 46 37.1624 39.339 41.7722 44.5308 46 38.6834 41.4071 44.452 46 40.0015 42.244 44.7509 46 41.4512 43.7043 46 43.307 45.233 46 45.0477 46 7.50995 7.55277 8.31229 9.10749 9.88586 10.6354 11.3016 11.9371 12.8116 13.5279 14.4395 15.3635 16.1972 17.1031 17.9182 18.853 19.8919 20.9131 21.8209 22.9113 23.9033 24.9131 25.9987 26.9969 27.8387 29.0265 30.1632 31.2719 32.6076 33.8439 35.0362 36.3809 37.7103 39.139 40.8059 42.1794 43.748 45.3254 46 14.845 16.7378 18.8538 21.2527 24.0221 27.2975 31.3064 36.4747 43.759 46 15.7386 18.0715 20.6795 23.6363 27.0496 31.0866 36.0276 42.3976 46 16.677 18.8315 21.2401 23.9706 27.1229 30.8512 35.4142 41.297 46 17.5985 19.7153 22.0816 24.7644 27.8614 31.5244 36.0075 41.7873 46 18.4887 21.0414 23.895 27.1302 30.8649 35.2821 40.6884 46 19.2821 21.2489 23.4476 25.9403 28.8179 32.2213 36.3868 41.757 46 20.0412 22.2416 24.7014 27.4901 30.7094 34.5171 39.1773 45.1853 46 21.0891 23.0466 25.2349 27.7158 30.5798 33.9671 38.1129 43.4578 46 21.9506 24.0635 26.4256 29.1034 32.1947 35.851 40.3259 46 23.0508 24.9043 26.9762 29.3252 32.0369 35.2441 39.1695 44.2301 46 24.1709 26.424 28.9428 31.7984 35.095 38.9939 43.7659 46 25.1857 27.0789 29.1955 31.595 34.365 37.6412 41.651 46 26.2931 28.0396 29.992 32.2056 34.7609 37.7831 41.4821 46 27.2937 29.3815 31.7154 34.3615 37.4161 41.0289 45.4507 46 28.4464 30.8342 33.5035 36.5298 40.0233 44.1553 46 29.734 31.9279 34.3804 37.1609 40.3707 44.1671 46 31.0067 33.3284 35.9238 38.8662 42.263 46 32.1442 34.1985 36.495 39.0986 42.1042 45.6591 46 33.5182 35.6317 37.9944 40.673 43.7652 46 34.7758 36.9364 39.3517 42.09 45.2511 46 36.0637 38.0964 40.3688 42.945 45.919 46 37.4573 39.6305 42.06 44.8143 46 38.7471 40.5542 42.5743 44.8646 46 39.8415 41.9589 44.3261 46 41.3962 43.3312 45.4944 46 42.896 45.3034 46 44.3708 46 8.0765 8.12085 8.94462 9.6072 10.4053 11.3387 12.2049 13.0153 13.787 14.6408 15.5839 16.5143 17.3961 18.2196 19.0889 20.1719 20.9861 22.0731 22.9853 24.0796 24.9711 25.9403 27.0851 28.2731 29.4897 30.6269 31.948 33.1284 34.3793 35.8207 37.1717 38.6727 40.1127 41.5342 43.0444 44.573 46 16.1265 18.4319 21.0092 23.9311 27.3041 31.2936 36.1763 42.4712 46 17.0967 19.1746 21.4976 24.1312 27.1714 30.7672 35.1681 40.8418 46 17.8792 20.1885 22.7701 25.6969 29.0757 33.0719 37.9628 44.2684 46 18.8243 21.0702 23.5809 26.4273 29.7133 33.5997 38.3564 44.4887 46 19.9332 22.0759 24.4713 27.187 30.322 34.0299 38.5681 44.4188 46 20.9658 23.2785 25.8639 28.7951 32.1788 36.1809 41.0791 46 21.9351 24.1704 26.6694 29.5024 32.7729 36.6411 41.3754 46 22.861 25.6076 28.6782 32.1593 36.1779 40.9309 46 23.8888 26.105 28.5825 31.3912 34.6336 38.4686 43.1623 46 25.0285 27.087 29.3882 31.9971 35.0089 38.571 42.9307 46 26.1572 28.0916 30.2539 32.7054 35.5355 38.8828 42.9795 46 27.2313 29.3236 31.6625 34.3142 37.3753 40.9958 45.427 46 28.2382 30.5292 33.0902 35.9937 39.3455 43.3098 46 29.3052 31.3218 33.5761 36.1319 39.0823 42.5719 46 30.6406 32.7914 35.1958 37.9217 41.0685 44.7904 46 31.649 33.7859 36.1748 38.8831 42.0096 45.7074 46 33.0017 35.4887 38.269 41.421 45.0597 46 34.1425 36.2208 38.5442 41.1782 44.219 46 35.5182 37.8323 40.4192 43.352 46 36.6448 38.9805 41.5917 44.552 46 37.8757 40.0278 42.4337 45.1613 46 39.3382 41.3011 43.4955 45.9832 46 40.866 43.1424 45.6871 46 42.4417 44.3797 46 43.9253 45.5618 46 45.662 46 8.64082 8.68489 9.44961 10.312 11.1215 12.0636 12.9253 13.9668 14.777 15.6849 16.4625 17.2889 18.2407 19.2089 20.2642 21.1727 22.236 23.3034 24.4643 25.6283 26.8895 28.0713 29.2389 30.6872 32.0105 33.3201 34.4136 35.9705 37.4216 38.5963 40.1053 41.5574 43.0937 44.809 46 17.5124 19.6252 21.9872 24.665 27.7563 31.4126 35.8874 41.6565 46 18.4171 20.6482 23.1424 25.9701 29.2344 33.0953 37.8207 43.9127 46 19.4402 21.584 23.9805 26.6974 29.8339 33.5435 38.0837 43.9371 46 20.4035 22.3491 24.5242 26.99 29.8367 33.2035 37.3242 42.6368 46 21.528 23.622 25.9629 28.6167 31.6804 35.3039 39.7387 45.4562 46 22.5601 24.6768 27.0431 29.7258 32.8227 36.4855 40.9685 46 23.812 26.0163 28.4806 31.2744 34.4995 38.3141 42.9827 46 24.7894 27.1217 29.7291 32.6852 36.0976 40.1337 45.0735 46 25.8883 27.8922 30.1323 32.6719 35.6037 39.0713 4