<?xml version="1.0"?><VTKFile type="PolyData" version="0.1" byte_order="LittleEndian">
<PolyData>
<Piece NumberOfLines="79" NumberOfPoints="870">
<PointData Scalars=" PointData">
<DataArray type="Float32" Name="time" NumberOfComponents="1" format="ascii" >
0 0.209991 0.726545 1.23527 1.74848 2.26995 2.78813 3.30489 3.8504 4.39089 4.93812 5.46778 6.00021 6.5586 7.1115 7.68718 8.24511 8.82038 9.41742 10.0098 10.6107 11.2039 11.8079 12.4072 13.0314 13.6515 14.2808 14.9231 15.5957 16.2532 16.8939 17.5257 18.1981 18.8837 19.5798 20.2905 20.9938 21.6999 22.4192 23.1662 23.9245 24.6773 25.4181 26.1889 26.9959 27.802 28.5912 29.384 30.2383 31.0744 31.9047 32.7642 33.6079 34.4897 35.3788 36.2672 37.1835 38.0959 39.0466 39.9844 40.9619 41.9648 42.9694 43.9553 44.9889 46.0303 47.0976 48.1405 49.1922 50.3531 51.5618 52.7392 53.8991 55.1102 56.3438 57.6084 58.9298 60.2868 61.6727 62.9948 64.3938 65.8312 66 1.59705 3.2268 5.04871 7.11423 9.49868 12.3189 15.7706 20.2205 26.4924 37.2143 66 2.12541 3.46599 4.96463 6.66365 8.62502 10.9448 13.7841 17.4444 22.6035 31.4229 66 2.64586 3.67867 4.83324 6.14219 7.65326 9.44047 11.6279 14.4479 18.4225 25.2171 66 3.17101 4.46542 5.91246 7.55298 9.44681 11.6867 14.4282 17.9626 22.9439 31.4597 66 3.70471 4.72737 5.87061 7.16671 8.66295 10.4326 12.5985 15.3909 19.3264 26.0544 66 4.23515 5.32323 6.5396 7.9186 9.51054 11.3934 13.6979 16.6688 20.8561 28.0144 66 4.76424 5.98769 7.35539 8.90597 10.696 12.8131 15.4043 18.7448 23.4531 31.502 66 5.32287 6.6323 8.09612 9.75565 11.6714 13.9374 16.7106 20.2859 25.3251 33.9395 66 5.8765 7.15946 8.59368 10.2197 12.0967 14.3168 17.034 20.5371 25.4744 33.9147 66 6.43714 7.59208 8.8832 10.3469 12.0367 14.0353 16.4813 19.6349 24.0795 31.6776 66 6.9799 8.46714 10.1297 12.0146 14.1906 16.7642 19.914 23.9749 29.6983 39.4826 66 7.52561 8.66728 9.94356 11.3905 13.0608 15.0365 17.4544 20.5717 24.9652 32.4761 66 8.09806 9.47494 11.0142 12.7592 14.7736 17.1563 20.0723 23.8318 29.1305 38.1887 66 8.66501 9.7868 11.0409 12.4626 14.1039 16.0451 18.4209 21.4839 25.801 33.1811 66 9.25546 10.653 12.2152 13.9864 16.031 18.4493 21.409 25.2248 30.6029 39.7967 66 9.82784 10.8874 12.0718 13.4147 14.9648 16.7983 19.0423 21.9353 26.0128 32.9833 66 10.4181 11.5152 12.7417 14.1321 15.7372 17.6356 19.9592 22.9547 27.1767 34.3942 66 11.0309 12.1833 13.4715 14.932 16.618 18.6121 21.0526 24.1991 28.6338 36.2149 66 11.6391 12.8657 14.237 15.7916 17.5863 19.7089 22.3068 25.6561 30.3766 38.4464 66 12.2562 13.4054 14.69 16.1465 17.8279 19.8165 22.2504 25.3882 29.8107 37.3711 66 12.8655 14.0211 15.313 16.7776 18.4684 20.4682 22.9157 26.071 30.5183 38.1209 66 13.4861 14.8539 16.3829 18.1164 20.1176 22.4844 25.3813 29.1159 34.3796 43.378 66 14.102 15.164 16.3512 17.6972 19.251 21.0887 23.338 26.2377 30.3247 37.3114 66 14.7438 16.0294 17.4665 19.0959 20.9768 23.2014 25.9242 29.4344 34.3819 42.8395 66 15.3814 16.5025 17.7557 19.1764 20.8166 22.7565 25.1308 28.1917 32.5059 39.881 66 16.0287 17.2628 18.6423 20.2064 22.0119 24.1474 26.761 30.1305 34.8797 42.9983 66 16.6896 17.9421 19.3421 20.9294 22.7618 24.929 27.5815 31.0012 35.8209 44.0603 66 17.3819 18.4585 19.6621 21.0266 22.6018 24.4648 26.745 29.6847 33.828 40.911 66 18.0588 19.1346 20.3372 21.7007 23.2747 25.1363 27.4147 30.3522 34.4923 41.5698 66 18.7186 19.7899 20.9875 22.3453 23.9127 25.7665 28.0354 30.9606 35.0833 42.1312 66 19.3696 20.5239 21.8144 23.2773 24.9662 26.9638 29.4086 32.5604 37.0028 44.597 66 20.0625 21.1646 22.3966 23.7934 25.4059 27.313 29.6472 32.6564 36.8977 44.1482 66 20.7693 21.6978 22.7358 23.9126 25.2711 26.8779 28.8445 31.3798 34.9531 41 66 21.4871 22.6679 23.9879 25.4845 27.212 29.2553 31.7561 34.9802 39.5243 47.2925 66 22.2203 23.4416 24.8068 26.3546 28.1414 30.2547 32.8412 36.1758 40.8757 48.9101 66 22.9461 24.2077 25.618 27.2169 29.0627 31.2458 33.9177 37.3624 42.2174 50.5172 66 23.675 24.8737 26.2138 27.733 29.4868 31.5612 34.0999 37.373 41.9861 49.8722 66 24.4179 25.6376 27.0011 28.5469 30.3313 32.4419 35.0251 38.3553 43.0491 51.073 66 25.1897 26.2616 27.4599 28.8184 30.3867 32.2416 34.5118 37.4387 41.5638 48.6157 66 25.9734 27.2946 28.7714 30.4458 32.3787 34.6648 37.4628 41.0701 46.1542 54.8455 66 26.7519 27.9076 29.1995 30.6641 32.3549 34.3547 36.8023 39.9578 44.4051 52.008 66 27.5182 28.5462 29.6955 30.9984 32.5025 34.2815 36.4588 39.2658 43.2221 49.9854 66 28.3159 29.6964 31.2396 32.9892 35.0089 37.3977 40.3213 44.0906 49.4031 58.4848 66 29.1514 30.4142 31.8258 33.4262 35.2738 37.4589 40.1333 43.5812 48.4408 56.7483 66 29.9864 30.9752 32.0806 33.3337 34.7803 36.4914 38.5855 41.2853 45.0904 51.5953 66 30.8043 32.2196 33.8017 35.5954 37.6661 40.1152 43.1127 46.977 52.4236 61.7345 66 31.6263 32.8724 34.2655 35.8448 37.668 39.8244 42.4636 45.8662 50.6618 58.8599 66 32.5124 33.8471 35.3392 37.0308 38.9836 41.2932 44.12 47.7643 52.9008 61.6815 66 33.3802 34.625 36.0165 37.5941 39.4154 41.5694 44.2058 47.6046 52.395 60.5843 66 34.2424 35.6607 37.2463 39.0438 41.119 43.5734 46.5773 50.45 55.9083 65.2393 66 35.1353 36.1018 37.1822 38.4071 39.8211 41.4935 43.5404 46.1793 49.8986 56.2568 66 36.0123 37.2735 38.6833 40.2816 42.1267 44.309 46.9799 50.4233 55.2765 63.5732 66 36.9295 38.2705 39.7697 41.4692 43.4313 45.7518 48.592 52.2536 57.4143 66 37.8548 39.0066 40.2941 41.7538 43.439 45.432 47.8713 51.0162 55.4486 63.0258 66 38.7799 39.9533 41.265 42.752 44.4687 46.4991 48.9842 52.1879 56.7034 64.4226 66 39.7346 40.8813 42.1631 43.6164 45.294 47.2783 49.7068 52.8377 57.2504 64.794 66 40.6859 41.7918 43.0281 44.4297 46.0478 47.9615 50.3037 53.3233 57.5792 64.8548 66 41.6777 42.9855 44.4474 46.1048 48.0182 50.2812 53.0509 56.6216 61.6543 66 42.6568 43.6821 44.8282 46.1276 47.6277 49.4018 51.5732 54.3727 58.3182 65.0633 66 43.678 44.8138 46.0835 47.523 49.1847 51.1502 53.5557 56.657 61.0279 66 44.7264 45.8294 47.0624 48.4603 50.074 51.9827 54.3187 57.3303 61.5749 66 45.7775 46.8946 48.1435 49.5594 51.1939 53.1271 55.4931 58.5434 62.8427 66 46.8097 47.9543 49.2339 50.6845 52.3592 54.3398 56.764 59.8892 64.2941 66 47.8928 49.0406 50.3237 51.7784 53.4578 55.444 57.875 61.009 65.4263 66 48.9848 50.3729 51.9247 53.684 55.715 58.1171 61.0571 64.8473 66 50.105 51.2132 52.452 53.8565 55.4778 57.3954 59.7424 62.7682 66 51.2005 52.7734 54.5318 56.5253 58.8266 61.5484 64.8797 66 52.3062 53.5388 54.9166 56.4787 58.282 60.4148 63.0252 66 53.528 54.6429 55.8893 57.3023 58.9336 60.8629 63.2242 66 54.8012 56.2593 57.8894 59.7374 61.8708 64.394 66 56.0428 57.1074 58.2974 59.6466 61.2041 63.0462 65.3008 66 57.2672 58.4097 59.6869 61.1348 62.8064 64.7834 66 58.5471 59.732 61.0567 62.5585 64.2922 66 59.8521 61.0195 62.3244 63.8039 65.5118 66 61.1917 62.496 63.9542 65.6073 66 62.5931 63.8372 65.228 66 64.0341 65.2388 66 65.508 66 
</DataArray>

</PointData>
<CellData Scalars=" CellData">
<DataArray type="Float32" Name="radius" NumberOfComponents="1" format="ascii" >
0.0387772 0.0260817 0.024496 0.0297562 0.0281853 0.0259329 0.0301368 0.025419 0.0276653 0.0264209 0.0259976 0.0299241 0.0234377 0.0307103 0.0208731 0.0287482 0.0211448 0.0272078 0.0253985 0.0284328 0.0270475 0.0253734 0.0285085 0.0264185 0.0246053 0.0281368 0.0327854 0.029431 0.0289053 0.0298881 0.0285243 0.027454 0.028201 0.0250166 0.0265732 0.0309151 0.0300955 0.0302729 0.0265034 0.0264037 0.0269355 0.0311644 0.0300413 0.0282299 0.0242091 0.0296147 0.0284007 0.019237 0.0251803 0.0281721 0.026804 0.0277151 0.0288272 0.0247283 0.0247732 0.0284301 0.0226892 0.0267742 0.0274002 0.0303096 0.0290373 0.0273013 0.0240038 0.031487 0.0261215 0.0323744 0.0275293 0.0302335 0.027705 0.0217466 0.0290312 0.0278377 0.02624 0.0286599 0.0303588 0.0272068 0.0352962 0.0278987 0.0258223 
</DataArray>
<DataArray type="Float32" Name="subType" NumberOfComponents="1" format="ascii" >
1 2 2 2 2 2 2 2 2 2 2 2 2 2 2 2 2 2 2 2 2 2 2 2 2 2 2 2 2 2 2 2 2 2 2 2 2 2 2 2 2 2 2 2 2 2 2 2 2 2 2 2 2 2 2 2 2 2 2 2 2 2 2 2 2 2 2 2 2 2 2 2 2 2 2 2 2 2 2 
</DataArray>
<DataArray type="Float32" Name="creationTime" NumberOfComponents="1" format="ascii" >
0 1.59705 2.12541 2.64586 3.17101 3.70471 4.23515 4.76424 5.32287 5.8765 6.43714 6.9799 7.52561 8.09806 8.66501 9.25546 9.82784 10.4181 11.0309 11.6391 12.2562 12.8655 13.4861 14.102 14.7438 15.3814 16.0287 16.6896 17.3819 18.0588 18.7186 19.3696 20.0625 20.7693 21.4871 22.2203 22.9461 23.675 24.4179 25.1897 25.9734 26.7519 27.5182 28.3159 29.1514 29.9864 30.8043 31.6263 32.5124 33.3802 34.2424 35.1353 36.0123 36.9295 37.8548 38.7799 39.7346 40.6859 41.6777 42.6568 43.678 44.7264 45.7775 46.8097 47.8928 48.9848 50.105 51.2005 52.3062 53.528 54.8012 56.0428 57.2672 58.5471 59.8521 61.1917 62.5931 64.0341 65.508 
</DataArray>

</CellData>
<Points>
<DataArray type="Float32" Name="Coordinates" NumberOfComponents="3" format="ascii" >
0 0 -3 -0.00235155 0.00112318 -3.3753 0.0107234 0.00161382 -4.29301 0.0221965 -0.0081987 -5.18929 0.101403 -0.122863 -6.07524 0.204155 -0.159793 -6.97228 0.26848 -0.212425 -7.85881 0.338971 -0.261812 -8.73514 0.365453 -0.235602 -9.65594 0.32661 -0.298482 -10.558 0.290276 -0.291534 -11.4656 0.26035 -0.288295 -12.3365 0.243525 -0.265091 -13.2046 0.211631 -0.265667 -14.1069 0.164847 -0.230861 -14.9909 0.116668 -0.214336 -15.9036 0.0615029 -0.153642 -16.7775 0.0103212 -0.0408299 -17.6656 -0.0714176 0.0511178 -18.5793 0.149957 0.0964604 -19.4565 0.416278 0.142273 -20.3255 0.554148 -0.0061967 -21.1919 0.624553 0.0585888 -22.084 0.627877 0.00110354 -22.9636 0.648879 -0.081031 -23.8689 0.670194 -0.165118 -24.7588 0.662064 -0.217324 -25.6554 0.658481 -0.280933 -26.5605 0.655438 -0.344046 -27.4984 0.603079 -0.547531 -28.3828 0.553104 -0.735733 -29.2375 0.454283 -0.775057 -30.0865 0.556696 -0.819655 -30.9805 0.777875 -0.780123 -31.8607 0.942508 -0.710058 -32.7553 0.961216 -0.973579 -33.6372 1.1597 -0.935229 -34.515 1.23363 -0.865657 -35.4032 1.21025 -0.858914 -36.3033 1.18678 -0.856511 -37.2268 1.18874 -0.883287 -38.1529 1.26331 -0.865035 -39.0583 1.12841 -0.937442 -39.9282 1.08741 -1.22424 -40.7888 0.971472 -1.29758 -41.7171 1.1234 -1.33171 -42.6291 1.2382 -1.34209 -43.5158 1.36345 -1.37457 -44.3931 1.45512 -1.43428 -45.3296 1.48322 -1.37638 -46.2375 1.51004 -1.30644 -47.1262 1.55814 -1.31629 -48.0354 1.70232 -1.26594 -48.9036 1.73619 -1.26695 -49.8116 1.79009 -1.23061 -50.7123 1.76693 -1.1966 -51.6008 1.74426 -1.1975 -52.5045 1.68756 -1.30054 -53.3835 1.67579 -1.39846 -54.2884 1.49557 -1.50577 -55.1475 1.43401 -1.50304 -56.0528 1.38245 -1.50343 -56.9675 1.42368 -1.55827 -57.8679 1.45436 -1.37037 -58.7188 1.55779 -1.35785 -59.612 1.5172 -1.41895 -60.4998 1.51871 -1.48483 -61.3951 1.49474 -1.53405 -62.2555 1.46866 -1.59286 -63.1079 1.47045 -1.69368 -64.0292 1.47214 -1.79975 -64.9698 1.35579 -1.93053 -65.8571 1.21727 -2.01438 -66.7161 1.12649 -1.82261 -67.586 1.11864 -1.76077 -68.478 1.02469 -1.80672 -69.3701 1.11017 -1.85196 -70.284 1.09189 -1.94476 -71.2027 1.05245 -2.12376 -72.1067 1.03153 -2.24686 -72.9585 1.01013 -2.37384 -73.8401 1.01571 -2.4668 -74.73 1.01822 -2.46901 -74.8336 -0.00235155 0.00112318 -3.3753 0.216834 -0.929577 -3.08246 0.246058 -1.91837 -2.93606 0.27149 -2.90694 -2.78747 0.292626 -3.89589 -2.64069 0.441316 -4.88475 -2.6468 0.760704 -5.74924 -3.03494 1.10599 -6.6116 -3.40522 1.466 -7.50042 -3.68877 1.99741 -8.28233 -4.01467 2.54116 -8.85714 -4.30974 0.0107234 0.00161382 -4.29301 0.821155 0.561862 -4.46425 1.60893 0.996533 -4.90069 2.41236 1.48136 -5.2463 3.12594 2.02786 -5.68464 3.85289 2.58239 -6.08964 4.42611 3.13763 -6.69224 5.01478 3.61475 -7.3448 5.62958 4.17405 -7.90086 6.09339 4.80886 -8.51883 6.47229 5.32442 -9.19922 0.0221965 -0.0081987 -5.18929 0.0211083 0.982633 -5.32439 0.0456885 1.97882 -5.40809 0.0457949 2.9742 -5.50414 -0.0180748 3.95895 -5.66595 -0.173332 4.92549 -5.87015 -0.348581 5.88849 -6.07489 -0.447732 6.85874 -6.29576 -0.560423 7.82135 -6.54211 -0.556744 8.77909 -6.82972 -0.606884 9.55325 -7.4357 0.101403 -0.122863 -6.07524 0.565831 0.742214 -6.26484 1.05155 1.54753 -6.60476 1.50026 2.38014 -6.92945 2.03698 3.15013 -7.27447 2.56023 3.93329 -7.61043 3.12507 4.60604 -8.0883 3.41098 5.39605 -8.63066 3.53295 6.22933 -9.16987 3.98343 6.92558 -9.72872 4.41472 7.62793 -10.1805 0.204155 -0.159793 -6.97228 0.141739 0.805697 -7.22512 -0.0135542 1.73526 -7.55949 -0.227781 2.63844 -7.93147 -0.532343 3.50897 -8.31802 -1.00971 4.15403 -8.91469 -1.33337 4.80328 -9.60296 -1.78312 5.35466 -10.3056 -2.20405 5.80933 -11.0905 -2.66321 6.07771 -11.9374 -3.32348 6.28039 -12.6378 0.26848 -0.212425 -7.85881 0.148373 0.691908 -8.26839 0.120199 1.51276 -8.83884 0.129076 2.30026 -9.45509 0.11685 3.0503 -10.1164 0.10771 3.72119 -10.8579 0.214666 4.43299 -11.5521 0.389858 5.1092 -12.2676 0.777455 5.48889 -13.1076 1.09132 5.81504 -13.9993 1.54719 5.83437 -14.8607 0.338971 -0.261812 -8.73514 -0.347903 0.463944 -8.69664 -0.861231 1.30142 -8.88407 -1.38959 2.13602 -9.03987 -1.94755 2.95113 -9.19571 -2.36466 3.84814 -9.34194 -2.64534 4.7984 -9.47692 -2.88988 5.75483 -9.63642 -2.99614 6.74082 -9.76502 -3.00051 7.69543 -10.0629 -2.93893 8.5822 -10.3944 0.365453 -0.235602 -9.65594 -0.520497 0.195225 -9.48424 -1.18206 0.909446 -9.25571 -1.83353 1.64635 -9.07528 -2.31479 2.51222 -8.93867 -2.86859 3.33846 -8.83557 -3.25712 4.25774 -8.89864 -3.61621 5.14311 -9.19389 -3.93527 5.97577 -9.64652 -4.11826 6.87387 -10.0464 -4.22839 7.67126 -10.5005 0.32661 -0.298482 -10.558 -0.21001 -1.14012 -10.6187 -0.807904 -1.92999 -10.7552 -1.54682 -2.55203 -11.0142 -2.2435 -3.22752 -11.2557 -2.91092 -3.89158 -11.5927 -3.57388 -4.57134 -11.9064 -4.10942 -5.26926 -12.3819 -4.64146 -5.97635 -12.8477 -5.24675 -6.62659 -13.3069 -5.78652 -7.26775 -13.7059 0.290276 -0.291534 -11.4656 -0.403371 0.424598 -11.388 -1.18693 1.0459 -11.3847 -1.92665 1.71404 -11.4648 -2.64852 2.40348 -11.5246 -3.38747 3.0743 -11.5875 -3.99638 3.79162 -11.9262 -4.57663 4.23702 -12.608 -5.15093 4.50249 -13.3824 -5.54318 4.7457 -14.2695 -5.83606 4.64611 -15.1745 0.26035 -0.288295 -12.3365 1.25578 -0.332666 -12.421 2.25506 -0.311517 -12.4527 3.24053 -0.454755 -12.5439 4.22781 -0.576343 -12.6464 5.21904 -0.670237 -12.7394 6.08861 -0.409238 -13.1585 6.97606 -0.197016 -13.5677 7.88343 0.0526003 -13.9059 8.64251 0.237429 -14.5301 9.25706 0.339867 -15.1042 0.243525 -0.265091 -13.2046 1.14696 -0.658219 -13.3756 2.09788 -0.900239 -13.5684 3.05173 -1.13944 -13.75 3.95841 -1.31895 -14.1317 4.86071 -1.44951 -14.5426 5.67098 -1.49513 -15.1268 6.5108 -1.60747 -15.658 7.29293 -1.88035 -16.2181 8.05613 -2.12908 -16.8145 8.42046 -2.54192 -17.5944 0.211631 -0.265667 -14.1069 -0.723681 -0.49631 -14.3752 -1.46263 -0.858386 -14.9434 -2.00032 -1.30207 -15.6604 -2.56706 -1.56266 -16.442 -2.9691 -1.60101 -17.3568 -3.36236 -1.58496 -18.2761 -3.52254 -1.61442 -19.2627 -3.68884 -1.65005 -20.2482 -3.8651 -1.69556 -21.2314 -3.91818 -1.83098 -22.1003 0.164847 -0.230861 -14.9909 0.802985 -0.998481 -15.0504 1.36678 -1.81423 -15.1796 1.99283 -2.55417 -15.4257 2.61125 -3.302 -15.6672 3.24662 -3.99837 -16.0009 3.86795 -4.67013 -16.4042 4.29141 -5.34709 -17.0062 4.71643 -6.02388 -17.6073 5.12207 -6.71422 -18.2064 5.67584 -7.16525 -18.8391 0.116668 -0.214336 -15.9036 -0.0680761 0.767713 -15.9416 -0.376377 1.71301 -16.0483 -0.80443 2.59933 -16.2249 -1.21316 3.48853 -16.4305 -1.71814 4.32778 -16.6321 -2.33957 5.09248 -16.8026 -2.96992 5.82345 -17.064 -3.46701 6.5749 -17.4978 -4.07685 7.19662 -17.9893 -4.57382 7.72215 -18.457 0.0615029 -0.153642 -16.7775 0.349111 -1.11022 -16.7301 0.655653 -2.0516 -16.8709 0.913039 -3.0052 -17.0271 1.24914 -3.93803 -17.157 1.59841 -4.86896 -17.2637 2.05213 -5.69599 -17.5956 2.59113 -6.46634 -17.9363 3.14808 -7.16551 -18.3846 3.73864 -7.82842 -18.8448 4.21841 -8.33299 -19.5093 0.0103212 -0.0408299 -17.6656 0.533638 0.745698 -17.9935 1.15663 1.42621 -18.3792 1.75559 2.1087 -18.7981 2.12841 2.93249 -19.2252 2.50406 3.74819 -19.6651 2.79048 4.52919 -20.2201 3.06448 5.26423 -20.8403 3.36079 6.02701 -21.415 3.65679 6.79003 -21.9896 3.87567 7.46309 -22.6263 -0.0714176 0.0511178 -18.5793 0.459559 -0.661369 -19.038 0.834216 -1.27244 -19.7353 1.31764 -1.77305 -20.4534 1.85609 -2.08839 -21.2348 2.43641 -2.49182 -21.9423 2.80965 -2.76224 -22.8297 3.09337 -2.92893 -23.774 3.2549 -3.07827 -24.7495 3.3287 -3.09202 -25.7467 3.31629 -2.96583 -26.6724 0.149957 0.0964604 -19.4565 0.807423 0.764063 -19.1071 1.50225 1.4124 -18.7959 2.19265 2.11922 -18.6418 2.84934 2.87288 -18.6692 3.43437 3.61602 -18.994 3.99634 4.39338 -19.2766 4.57383 5.17341 -19.5176 5.42141 5.60319 -19.8289 6.24578 6.03988 -20.189 6.76658 6.6907 -20.5446 0.416278 0.142273 -20.3255 1.31149 0.171381 -19.8808 2.2666 0.0484381 -19.6113 3.17687 -0.345213 -19.7396 4.16762 -0.475915 -19.7759 5.14548 -0.6647 -19.8662 6.03694 -1.07663 -20.0549 6.86104 -1.61284 -20.2375 7.59054 -2.28496 -20.3643 8.20969 -3.02565 -20.6251 8.76699 -3.72372 -20.875 0.554148 -0.0061967 -21.1919 0.710873 0.981229 -21.2126 0.986962 1.93972 -21.1414 1.2075 2.91323 -21.2018 1.61823 3.82468 -21.2255 2.01328 4.73872 -21.3175 2.25239 5.68202 -21.5477 2.21821 6.63971 -21.8335 2.16131 7.58335 -22.1596 1.97383 8.50308 -22.5044 1.75649 9.30077 -22.9109 0.624553 0.0585888 -22.084 0.84302 1.02927 -22.1842 1.07955 1.98901 -22.3357 1.12293 2.9774 -22.4813 1.40977 3.91042 -22.6986 1.66308 4.86165 -22.8746 2.11753 5.72958 -23.0751 2.58328 6.53494 -23.4418 3.09167 7.32522 -23.7838 3.67123 7.99323 -24.2506 4.12312 8.54502 -24.6651 0.627877 0.00110354 -22.9636 -0.0714053 -0.658107 -23.2401 -0.824318 -1.2664 -23.4913 -1.58117 -1.87031 -23.7413 -2.24418 -2.28834 -24.3623 -2.82584 -2.60138 -25.1131 -3.41263 -2.9103 -25.8616 -3.92388 -3.29382 -26.6307 -4.48139 -3.62048 -27.3939 -5.10319 -3.68093 -28.1747 -5.5002 -3.76996 -29.0243 0.648879 -0.081031 -23.8689 0.880398 -1.03035 -24.0815 1.05698 -1.96956 -24.376 1.149 -2.94018 -24.5983 1.26004 -3.90704 -24.8282 1.66749 -4.67946 -25.3154 1.99498 -5.42193 -25.8997 2.32438 -6.16522 -26.482 2.62543 -6.7478 -27.237 2.84789 -7.31052 -28.0331 3.067 -7.7268 -28.7412 0.670194 -0.165118 -24.7588 1.63795 -0.410491 -24.7018 2.57344 -0.761117 -24.6581 3.55584 -0.947904 -24.655 4.51379 -1.23466 -24.6655 5.46878 -1.48999 -24.8164 6.44764 -1.63139 -24.9642 7.40407 -1.83622 -25.1723 8.22448 -2.33948 -25.4436 9.01451 -2.88097 -25.7311 9.72155 -3.40566 -25.9769 0.662064 -0.217324 -25.6554 -0.175318 0.197633 -26.0112 -0.932935 0.645122 -26.4863 -1.61733 1.26569 -26.8691 -2.11552 1.97937 -27.3615 -2.65362 2.62177 -27.9072 -3.19133 3.24646 -28.4734 -3.73053 3.86284 -29.0473 -4.1948 4.53259 -29.6269 -4.54979 4.90544 -30.4842 -4.89229 5.19084 -31.2192 0.658481 -0.280933 -26.5605 0.134859 0.570709 -26.5835 -0.600951 1.22813 -26.7459 -1.31013 1.92455 -26.8557 -2.01995 2.62298 -26.9471 -2.8702 3.12831 -27.0945 -3.62585 3.70939 -27.3967 -4.28619 4.13076 -28.0183 -4.95126 4.54727 -28.6382 -5.34148 5.14608 -29.3375 -5.63923 5.60617 -29.9769 0.655438 -0.344046 -27.4984 1.10288 -1.23425 -27.4128 1.49721 -2.14591 -27.2971 1.73208 -3.11772 -27.3177 1.76805 -4.11377 -27.399 1.74046 -5.09895 -27.5682 2.01955 -5.92828 -28.0523 2.36781 -6.78292 -28.4374 2.83456 -7.45151 -29.0163 3.24641 -8.15623 -29.594 3.52167 -8.73366 -30.2471 0.603079 -0.547531 -28.3828 1.42487 -1.05364 -28.6446 2.34667 -1.38908 -28.8389 3.18588 -1.82585 -29.1629 4.03588 -2.16727 -29.564 4.89052 -2.47053 -29.9855 5.76496 -2.57262 -30.4598 6.62545 -2.57679 -30.9692 7.38996 -2.72749 -31.596 8.09249 -2.92064 -32.2809 8.71455 -3.19011 -32.8859 0.553104 -0.735733 -29.2375 -0.365306 -0.426697 -29.4846 -1.18123 0.088224 -29.7475 -1.99667 0.604276 -30.0097 -2.69366 1.29476 -30.2031 -3.36777 1.96743 -30.5082 -3.92217 2.62702 -31.0158 -4.34892 3.37253 -31.5277 -4.71204 4.02926 -32.1887 -4.98392 4.60197 -32.962 -5.21604 4.96287 -33.7581 0.454283 -0.775057 -30.0865 -0.339036 -0.193605 -30.2669 -1.0805 0.440889 -30.4852 -1.98186 0.830109 -30.6751 -2.86476 1.08931 -31.0667 -3.7932 1.06925 -31.4376 -4.68993 0.999568 -31.8747 -5.53284 0.918615 -32.4066 -6.29865 0.960154 -33.0483 -7.00296 1.08798 -33.7466 -7.61101 1.1783 -34.3455 0.556696 -0.819655 -30.9805 0.305377 -1.78681 -30.9425 0.0546358 -2.75441 -30.9126 -0.129246 -3.73572 -30.8558 -0.298977 -4.71833 -30.7806 -0.476101 -5.69831 -30.6897 -0.85116 -6.62196 -30.611 -1.25148 -7.53812 -30.591 -1.64971 -8.45522 -30.5725 -2.2237 -9.21821 -30.8698 -2.87497 -9.75067 -31.1149 0.777875 -0.780123 -31.8607 1.46064 -0.0519332 -31.801 2.22248 0.595133 -31.8312 2.97838 1.21143 -32.0521 3.7344 1.83724 -32.2439 4.46915 2.47423 -32.4771 5.2079 2.78938 -33.0729 5.9875 3.08131 -33.627 6.74417 3.4057 -34.1946 7.5754 3.65586 -34.6768 8.30592 3.90374 -35.2278 0.942508 -0.710058 -32.7553 0.350521 -1.27102 -33.3339 -0.244804 -1.74335 -33.9839 -0.588536 -2.1232 -34.8427 -0.870462 -2.17969 -35.8005 -1.2005 -2.27268 -36.7399 -1.56921 -2.27343 -37.6694 -1.60974 -2.42395 -38.6572 -1.606 -2.53904 -39.6506 -1.51367 -2.63768 -40.6414 -1.46276 -2.58929 -41.45 0.961216 -0.973579 -33.6372 0.0999574 -0.501273 -33.8247 -0.75364 -0.0303338 -34.0474 -1.67911 0.282337 -34.2613 -2.60714 0.581951 -34.4826 -3.54321 0.870077 -34.6845 -4.44453 1.19967 -34.9656 -5.34238 1.51445 -35.2734 -6.23986 1.8348 -35.5766 -7.12703 2.1283 -35.9327 -7.83666 2.296 -36.1834 1.1597 -0.935229 -34.515 2.15394 -0.98806 -34.6084 3.12892 -0.794885 -34.7183 4.11585 -0.65104 -34.791 5.09909 -0.476257 -34.8429 6.01362 -0.112934 -35.0207 6.93601 0.183325 -35.2686 7.86216 0.377928 -35.5916 8.72847 0.542477 -36.0633 9.58656 0.655283 -36.5642 10.1444 0.568154 -37.02 1.23363 -0.865657 -35.4032 0.888312 0.0706976 -35.4664 0.500377 0.988616 -35.5497 0.424546 1.97622 -35.6871 0.528107 2.94819 -35.8982 0.615718 3.90879 -36.1619 0.799538 4.84622 -36.4577 0.99216 5.78678 -36.7374 1.19519 6.62698 -37.2402 1.37487 7.41998 -37.8223 1.58698 7.97419 -38.2935 1.21025 -0.858914 -36.3033 0.831183 -1.78354 -36.3404 0.472765 -2.71391 -36.4174 0.132044 -3.64868 -36.518 -0.282121 -4.55128 -36.6354 -0.800256 -5.40164 -36.7271 -1.35746 -6.16735 -37.0484 -1.75103 -7.04385 -37.3256 -2.17536 -7.93105 -37.5068 -2.69353 -8.75983 -37.718 -3.04029 -9.37387 -37.8845 1.18678 -0.856511 -37.2268 1.68257 -1.7151 -37.3572 2.16101 -2.58948 -37.4382 2.62019 -3.47113 -37.5471 3.09154 -4.34691 -37.6512 3.48196 -5.24403 -37.8579 3.86625 -6.10001 -38.2038 4.27567 -6.93031 -38.5819 4.73313 -7.72244 -38.986 5.25576 -8.50528 -39.3236 5.66676 -9.1573 -39.6003 1.18874 -0.883287 -38.1529 0.481211 -1.55012 -38.3869 -0.259345 -2.11783 -38.7465 -0.938215 -2.72574 -39.1582 -1.61842 -3.32341 -39.5826 -2.28237 -3.92493 -40.0269 -2.90271 -4.49904 -40.5613 -3.58499 -4.94976 -41.1369 -4.31282 -5.4798 -41.572 -4.84518 -6.09029 -42.1584 -5.09762 -6.46576 -42.5358 1.26331 -0.865035 -39.0583 1.3554 -1.84765 -38.8971 1.49663 -2.83628 -38.9486 1.42429 -3.80391 -39.1905 1.34144 -4.77549 -39.4122 1.21119 -5.7382 -39.6493 1.32603 -6.70113 -39.8934 1.36419 -7.64083 -40.2333 1.30983 -8.62026 -40.4276 1.39978 -9.5398 -40.8101 1.42479 -10.1935 -41.1127 1.12841 -0.937442 -39.9282 1.9799 -1.44272 -40.0684 2.8034 -1.92322 -40.37 3.59026 -2.49634 -40.5989 4.36624 -3.05072 -40.8998 5.13899 -3.59757 -41.222 5.87668 -4.06883 -41.7055 6.64643 -4.32244 -42.2912 7.34295 -4.4624 -42.995 8.03481 -4.60579 -43.7027 8.58598 -4.71702 -44.2805 1.08741 -1.22424 -40.7888 1.61192 -0.418347 -41.0634 2.14255 0.383696 -41.3376 2.61218 1.02661 -41.9426 2.94416 1.7612 -42.5344 3.14593 2.48521 -43.194 3.33925 3.20442 -43.8613 3.4535 3.92525 -44.545 3.38687 4.70812 -45.1636 3.39007 5.32376 -45.9516 3.35859 5.56149 -46.3163 0.971472 -1.29758 -41.7171 1.47939 -0.436365 -41.7354 1.72835 0.530739 -41.7877 2.01775 1.48737 -41.8208 2.36029 2.39907 -42.0477 2.61789 3.30802 -42.3755 2.66811 4.302 -42.4728 2.70795 5.28426 -42.6561 2.80153 6.24514 -42.9167 2.90688 7.16229 -43.3011 2.9558 7.65335 -43.5151 1.1234 -1.33171 -42.6291 0.290576 -0.798201 -42.7767 -0.545869 -0.27052 -42.9247 -1.38761 0.220324 -43.1495 -2.25662 0.667663 -43.361 -3.13756 1.10986 -43.5295 -4.00413 1.60807 -43.5584 -4.83579 2.15333 -43.6634 -5.69535 2.58192 -43.9418 -6.54779 3.01684 -44.2319 -7.20719 3.3579 -44.4856 1.2382 -1.34209 -43.5158 0.274981 -1.60924 -43.4868 -0.659316 -1.95264 -43.5826 -1.61084 -2.12468 -43.8375 -2.4649 -2.3416 -44.3103 -3.36773 -2.52285 -44.7002 -4.08557 -2.76173 -45.3542 -4.73674 -2.89722 -46.1009 -5.36197 -2.75322 -46.868 -5.96804 -2.59178 -47.6468 -6.10924 -2.53385 -47.872 1.36345 -1.37457 -44.3931 1.33012 -2.34988 -44.1748 1.22666 -3.33693 -44.0522 1.1121 -4.32241 -43.9269 1.00618 -5.30847 -43.7985 0.882205 -6.29781 -43.8749 0.873519 -7.25479 -44.1649 1.16074 -8.06202 -44.6805 1.34522 -8.85459 -45.2617 1.0606 -9.62197 -45.8363 0.915639 -9.98722 -46.0621 1.45512 -1.43428 -45.3296 2.45375 -1.48037 -45.3046 3.43686 -1.36854 -45.4494 4.42854 -1.43897 -45.5572 5.33376 -1.05482 -45.7389 6.22669 -0.993619 -46.1849 7.09218 -0.995867 -46.6858 8.05187 -0.936845 -46.9606 8.96664 -0.633688 -47.2276 9.84668 -0.462543 -47.6706 10.0996 -0.406064 -47.7983 1.48322 -1.37638 -46.2375 0.859345 -0.605348 -46.3652 0.491319 0.257628 -46.7113 0.118006 1.15169 -46.9589 -0.203576 2.06039 -47.2251 -0.695325 2.76104 -47.7421 -1.18788 3.44255 -48.2833 -1.67832 4.11413 -48.8387 -2.10656 4.70096 -49.5259 -2.52026 5.25528 -50.2481 -2.64472 5.42204 -50.5512 1.51004 -1.30644 -47.1262 1.19537 -0.425179 -46.7735 0.812598 0.438051 -46.4444 0.761137 1.39427 -46.1563 0.83559 2.34854 -45.8668 0.852214 3.31051 -45.5942 0.931437 4.28096 -45.3662 1.0969 5.26349 -45.281 1.26726 6.24842 -45.2511 1.44142 7.23264 -45.2198 1.45048 7.28678 -45.2174 1.55814 -1.31629 -48.0354 1.00875 -2.15081 -48.0774 0.465269 -2.98728 -48.1477 -0.192323 -3.70447 -48.3784 -0.807148 -4.4372 -48.6701 -1.44776 -5.07239 -49.1015 -2.09586 -5.70619 -49.5238 -2.53051 -6.27378 -50.223 -2.99473 -6.78663 -50.9451 -3.45318 -7.29765 -51.6722 -3.73658 -7.66115 -52.1366 1.70232 -1.26594 -48.9036 0.992238 -0.566664 -48.9861 0.274363 0.12768 -49.0365 -0.509843 0.717663 -49.2287 -1.26827 1.332 -49.4463 -1.9313 2.02154 -49.7378 -2.56259 2.70139 -50.1109 -3.12516 3.33892 -50.6373 -3.68325 3.96349 -51.1836 -4.22135 4.56658 -51.7725 -4.31947 4.68162 -51.8765 1.73619 -1.26695 -49.8116 2.68267 -0.993843 -49.6396 3.6433 -0.737488 -49.5325 4.48358 -0.198774 -49.5934 5.23921 0.361683 -49.9324 5.81085 1.01673 -50.4265 6.31689 1.74432 -50.8897 6.92055 2.31834 -51.4429 7.53408 2.75465 -52.1011 7.98362 3.25239 -52.8174 1.79009 -1.23061 -50.7123 2.46539 -0.495684 -50.6502 2.99258 0.341236 -50.5031 3.40422 1.25157 -50.4603 3.85145 2.14568 -50.4841 4.20059 3.08151 -50.5321 4.43386 3.98038 -50.9031 4.73754 4.79293 -51.4006 5.12792 5.47613 -52.0178 5.35298 5.96064 -52.8631 5.39323 6.06904 -53.0714 1.76693 -1.1966 -51.6008 1.43248 -2.1117 -51.826 0.860088 -2.87755 -52.119 0.28322 -3.62203 -52.4551 -0.472927 -4.18994 -52.7803 -1.20541 -4.76573 -53.1435 -1.95402 -5.41341 -53.2852 -2.72984 -6.02536 -53.4389 -3.49837 -6.61813 -53.6797 -4.32864 -6.98113 -54.1027 -4.44577 -7.01766 -54.1515 1.74426 -1.1975 -52.5045 1.98398 -2.16799 -52.5309 2.30762 -3.10857 -52.6337 2.63253 -4.04525 -52.7643 2.97488 -4.91347 -53.1235 3.28382 -5.79986 -53.4682 3.59729 -6.7128 -53.7295 3.92595 -7.607 -54.0335 4.39627 -8.41867 -54.3799 4.91797 -9.21782 -54.6785 4.96879 -9.30288 -54.713 1.68756 -1.30054 -53.3835 2.67454 -1.23726 -53.5314 3.62885 -1.05597 -53.769 4.59168 -0.890334 -53.9823 5.51968 -0.699015 -54.3021 6.43902 -0.738137 -54.6936 7.3756 -0.797455 -55.039 8.33476 -0.905283 -55.3005 9.29346 -0.87643 -55.5834 10.106 -0.908726 -56.1654 10.1856 -0.908807 -56.2313 1.67579 -1.39846 -54.2884 1.81906 -0.437099 -54.5235 1.97777 0.437135 -54.9823 2.04598 1.33076 -55.4259 1.95404 2.16059 -55.9763 1.91207 2.99861 -56.5203 1.67615 3.63338 -57.2561 1.41294 4.19662 -58.0394 1.0636 4.7971 -58.7587 0.857342 5.15298 -59.1827 1.49557 -1.50577 -55.1475 1.64415 -2.48713 -55.2693 1.79221 -3.46882 -55.3891 1.90506 -4.45271 -55.5279 2.06618 -5.39745 -55.8133 2.30608 -6.32758 -56.0914 2.35995 -7.20927 -56.5601 2.44377 -8.07045 -57.0615 2.60586 -8.91756 -57.5676 2.83495 -9.71104 -58.1314 2.85421 -9.7859 -58.1809 1.43401 -1.50304 -56.0528 1.65018 -0.549065 -56.2606 1.86208 0.400824 -56.4904 2.0606 1.35158 -56.7284 2.32791 2.29939 -56.9022 2.60429 3.24491 -57.0743 2.8305 4.18136 -57.3425 3.21635 5.06107 -57.6203 3.74085 5.85163 -57.9364 4.05362 6.41487 -58.2984 1.38245 -1.50343 -56.9675 2.30913 -1.12829 -56.9443 3.25517 -0.804285 -56.949 4.06772 -0.225307 -57.0164 4.90543 0.29893 -57.1695 5.76273 0.750355 -57.417 6.60823 1.23292 -57.6456 7.41559 1.67868 -58.0322 8.24878 1.63499 -58.5834 8.77111 1.66181 -59.0326 1.42368 -1.55827 -57.8679 0.50158 -1.70888 -58.2243 -0.428371 -1.50124 -58.5278 -1.33946 -1.23523 -58.8427 -2.18107 -1.12647 -59.3717 -2.97637 -0.906785 -59.9367 -3.63511 -1.03686 -60.6777 -4.30486 -1.23679 -61.3929 -4.93379 -1.39132 -62.1549 -5.24185 -1.45127 -62.5632 1.45436 -1.37037 -58.7188 0.639572 -1.87705 -59.0006 -0.0270625 -2.48539 -59.4313 -0.646541 -3.10695 -59.9108 -1.35999 -3.61198 -60.3965 -2.05487 -4.15248 -60.8709 -2.67462 -4.61917 -61.5018 -3.2106 -5.15332 -62.1556 -3.73933 -5.68692 -62.8157 -3.89891 -5.83304 -63.0097 1.55779 -1.35785 -59.612 1.80067 -0.388872 -59.6577 2.09068 0.552059 -59.8325 2.37022 1.50118 -59.9774 2.62015 2.46106 -60.1046 2.71819 3.41722 -60.3806 2.82869 4.36362 -60.6841 3.07851 5.19771 -61.1759 3.23688 6.04156 -61.6886 3.25763 6.13145 -61.7335 1.5172 -1.41895 -60.4998 0.668033 -1.94689 -60.5132 -0.281388 -2.26018 -60.5345 -1.21682 -2.61322 -60.5525 -2.14064 -2.99572 -60.5687 -3.057 -3.37553 -60.6953 -3.97599 -3.67568 -60.9509 -4.82311 -3.96369 -61.3975 -5.04139 -4.03055 -61.5026 1.51871 -1.48483 -61.3951 0.5869 -1.12899 -61.4665 -0.347375 -0.772439 -61.4684 -1.30709 -0.515448 -61.5819 -2.2559 -0.360345 -61.8571 -3.09203 -0.16451 -62.3694 -3.91104 -0.00484398 -62.9206 -4.77539 0.125038 -63.4064 -5.39719 -0.0101811 -63.8807 1.49474 -1.53405 -62.2555 0.553503 -1.224 -62.3894 -0.270707 -0.896016 -62.851 -1.04824 -0.715769 -63.4535 -1.68993 -0.371127 -64.1387 -2.0995 0.0535793 -64.9461 -2.52287 0.439716 -65.7656 -2.64479 0.575996 -65.9896 1.46866 -1.59286 -63.1079 1.27224 -2.55722 -63.2851 1.04996 -3.51134 -63.4858 0.990194 -4.4784 -63.7332 1.04861 -5.42942 -64.0368 1.0727 -6.2