<?xml version="1.0"?><VTKFile type="PolyData" version="0.1" byte_order="LittleEndian">
<PolyData>
<Piece NumberOfLines="266" NumberOfPoints="40580">
<PointData Scalars=" PointData">
<DataArray type="Float32" Name="time" NumberOfComponents="1" format="ascii" >
0 0.0454834 0.0910244 0.136623 0.18228 0.227996 0.273769 0.301261 0.347128 0.393054 0.420638 0.466658 0.512737 0.540413 0.586587 0.63282 0.660589 0.706918 0.753307 0.781169 0.827654 0.8742 0.902156 0.948798 0.995501 1.02355 1.07035 1.11721 1.14536 1.19232 1.23934 1.26758 1.3147 1.36188 1.39022 1.4375 1.48485 1.51328 1.56073 1.60824 1.63677 1.68438 1.73205 1.76068 1.80845 1.85629 1.88502 1.93296 1.98096 2.00979 2.0579 2.10607 2.135 2.18328 2.23162 2.26065 2.30909 2.3576 2.38674 2.43535 2.48403 2.51327 2.56206 2.61091 2.64025 2.68921 2.73824 2.76768 2.81682 2.86602 2.89557 2.94488 2.99426 3.02391 3.0734 3.12295 3.15272 3.20238 3.25211 3.28199 3.33183 3.38174 3.41172 3.46175 3.51184 3.54193 3.59213 3.64241 3.67261 3.723 3.77346 3.80377 3.85434 3.90498 3.93541 3.98617 4.037 4.06753 4.11848 4.1695 4.20014 4.25128 4.30249 4.33325 4.38457 4.43597 4.46685 4.51836 4.56996 4.60095 4.65266 4.70444 4.73555 4.78745 4.83943 4.87066 4.92276 4.97493 5.00628 5.05858 5.11095 5.14241 5.19491 5.24748 5.27906 5.33176 5.38454 5.41624 5.46914 5.52212 5.55394 5.60704 5.66023 5.69217 5.74548 5.79887 5.83094 5.88445 5.93805 5.97025 6.02397 6.07777 6.11009 6.16403 6.21804 6.25049 6.30463 6.35886 6.39144 6.44579 6.50023 6.53294 6.58751 6.64217 6.675 6.72979 6.78467 6.81763 6.87264 6.92773 6.96083 7.01606 7.07137 7.1046 7.16005 7.21558 7.24895 7.30462 7.36038 7.39388 7.44978 7.50577 7.5394 7.59553 7.65174 7.68551 7.74187 7.79831 7.83222 7.88881 7.94548 7.97953 8.03635 8.09326 8.12745 8.18451 8.24165 8.27599 8.33328 8.39066 8.42513 8.48266 8.54029 8.57491 8.63268 8.69054 8.72531 8.78332 8.84143 8.87634 8.9346 8.99295 9.02801 9.08652 9.14512 9.18032 9.23908 9.29793 9.33329 9.3923 9.4514 9.48691 9.54617 9.60553 9.64119 9.7007 9.76032 9.79613 9.85591 9.91578 9.95175 10.0118 10.0719 10.108 10.1683 10.2287 10.265 10.3256 10.3862 10.4227 10.4835 10.5445 10.5811 10.6422 10.7034 10.7401 10.8015 10.863 10.8999 10.9615 11.0233 11.0604 11.1223 11.1843 11.2216 11.2838 11.3461 11.3835 11.446 11.5086 11.5462 11.609 11.6719 11.7096 11.7727 11.8358 11.8738 11.9371 12.0006 12.0387 12.1023 12.1661 12.2044 12.2683 12.3324 12.3708 12.4351 12.4994 12.5381 12.6026 12.6672 12.7061 12.7709 12.8358 12.8749 12.94 13.0052 13.0444 13.1099 13.1754 13.2148 13.2806 13.3465 13.3861 13.4521 13.5183 13.5581 13.6245 13.691 13.7309 13.7977 13.8645 13.9046 13.9717 14.0388 14.0792 14.1465 14.214 14.2546 14.3223 14.3901 14.4308 14.4989 14.567 14.608 14.6763 14.7448 14.786 14.8547 14.9235 14.9649 15.0339 15.1031 15.1447 15.214 15.2836 15.3253 15.3951 15.465 15.507 15.5771 15.6473 15.6895 15.7599 15.8305 15.873 15.9438 16.0147 16.0574 16.1285 16.1999 16.2427 16.3143 16.386 16.4291 16.501 16.573 16.6164 16.6887 16.7611 16.8046 16.8773 16.9501 16.9939 17.067 17.1402 17.1842 17.2576 17.3312 17.3755 17.4493 17.5233 17.5678 17.642 17.7164 17.7611 17.8358 17.9106 17.9555 18.0306 18.1058 18.151 18.2265 18.3021 18.3475 18.4234 18.4995 18.5452 18.6214 18.6979 18.7439 18.8206 18.8975 18.9437 19.0208 19.0981 19.1446 19.2222 19.2999 19.3467 19.4247 19.5029 19.5499 19.6283 19.707 19.7542 19.8332 19.9122 19.9598 20.0391 20.1187 20.1665 20.2463 20.3263 20.3744 20.4547 20.5352 20.5835 20.6643 20.7453 20.7939 20.8751 20.9566 21.0055 21.0872 21.1691 21.2184 21.3006 21.3829 21.4325 21.5152 21.5981 21.6479 21.7311 21.8145 21.8646 21.9483 22.0322 22.0826 22.1668 22.2512 22.302 22.3867 22.4716 22.5227 22.6079 22.6934 22.7448 22.8305 22.9165 22.9682 23.0545 23.1411 23.1931 23.2799 23.367 23.4193 23.5068 23.5944 23.6471 23.735 23.8232 23.8762 23.9647 24.0535 24.1069 24.196 24.2853 24.339 24.4287 24.5186 24.5726 24.6629 24.7534 24.8078 24.8987 24.9898 25.0445 25.136 25.2277 25.2828 25.3749 25.4672 25.5227 25.6154 25.7083 25.7642 25.8575 25.9511 26.0074 26.1013 26.1955 26.2522 26.3468 26.4416 26.4986 26.5939 26.6894 26.7468 26.8427 26.9389 26.9967 27.0933 27.1902 27.2484 27.3457 27.4432 27.5018 27.5998 27.698 27.7571 27.8558 27.9547 28.0142 28.1135 28.2132 28.2731 28.3732 28.4736 28.5339 28.6347 28.7358 28.7966 28.8982 29.0001 29.0613 29.1636 29.2662 29.3279 29.431 29.5344 29.5966 29.7004 29.8046 29.8672 29.9718 30.0768 30.1399 30.2454 30.3511 30.4147 30.521 30.6275 30.6916 30.7987 30.9061 30.9707 31.0786 31.1869 31.252 31.3607 31.4698 31.5354 31.6451 31.755 31.8212 31.9317 32.0425 32.1092 32.2206 32.3323 32.3996 32.5119 32.6245 32.6923 32.8055 32.9191 32.9874 33.1016 33.2161 33.285 33.4001 33.5156 33.5851 33.7012 33.8176 33.8877 34.0048 34.1222 34.1929 34.311 34.4294 34.5007 34.6198 34.7393 34.8111 34.9313 35.0518 35.1243 35.2455 35.3671 35.4402 35.5625 35.6852 35.759 35.8823 36.0061 36.0806 36.205 36.3299 36.4051 36.5306 36.6567 36.7325 36.8593 36.9865 37.063 37.1909 37.3193 37.3965 37.5257 37.6552 37.7332 37.8636 37.9944 38.0731 38.2047 38.3367 38.4162 38.549 38.6824 38.7626 38.8968 39.0314 39.1124 39.2479 39.3839 39.4657 39.6025 39.7398 39.8225 39.9606 40.0993 40.1828 40.3224 40.4625 40.5468 40.6878 40.8293 40.9145 41.057 41.2 41.2861 41.43 41.5745 41.6615 41.8069 41.953 42.0409 42.1879 42.3355 42.4243 42.5729 42.7221 42.8119 42.9621 43.113 43.2038 43.3556 43.5081 43.5999 43.7535 43.9077 44.0005 44.1558 44.3117 44.4056 44.5626 44.7203 44.8153 44.9741 45.1337 45.2298 45.3905 45.5519 45.6491 45.8116 45.975 46.0733 46.2378 46.4031 46.5026 46.6692 46.8364 46.9372 47.1057 47.2751 47.377 47.5477 47.7191 47.8224 47.9951 48.1687 48.2733 48.4482 48.624 48.7299 48.9071 49.0852 49.1925 49.372 49.5524 49.661 49.8429 50.0257 50.1358 50.3201 50.5054 50.617 50.8037 50.9915 51.1046 51.294 51.4844 51.5991 51.791 51.9841 52.1004 52.2951 52.4908 52.6088 52.8063 53.0048 53.1245 53.3248 53.5263 53.6477 53.851 54.0555 54.1787 54.3851 54.5926 54.7177 54.9272 55.1379 55.2649 55.4776 55.6915 55.8205 56.0366 56.2539 56.3849 56.6044 56.8252 56.9583 57.1814 57.4058 57.5411 57.7677 57.9959 58.1334 58.3639 58.5958 58.7357 58.9701 59.206 59.3483 59.5867 59.8267 59.9715 60.2141 60.4584 60.6057 60.8527 61.1013 61.2514 61.5028 61.756 61.9088 62.165 62.4229 62.5786 62.8395 63.1024 63.2611 63.5271 63.795 63.9568 64.228 64.5013 64.6663 64.9429 65.2217 65.39 65.6724 65.9569 66.1287 66.4169 66.7075 66.8829 67.1773 67.4741 67.6534 67.9541 68.2574 68.4407 68.7481 69.0583 69.2456 69.5601 69.8774 70.0691 70.3909 70.7156 70.9119 71.2414 71.5739 71.7749 72.1125 72.4533 72.6593 73.0053 73.3547 73.566 73.9209 74.2793 74.4962 74.8604 75.2285 75.4511 75.8253 76.2034 76.4322 76.8167 77.2055 77.4408 77.8364 78 0.48969 0.615079 0.741254 0.868223 0.995998 1.12459 1.254 1.38426 1.51536 1.64732 1.78014 1.91385 2.04846 2.18396 2.32039 2.4302 2.56831 2.70737 2.81932 2.96013 3.10193 3.21609 3.35971 3.50437 3.62084 3.76739 3.91501 4.03389 4.18348 4.33419 4.45558 4.60834 4.76228 4.88628 5.04236 5.19966 5.32639 5.48593 5.64675 5.77633 5.93949 6.10398 6.23655 6.40349 6.57183 6.70752 6.87843 7.0508 7.18976 7.36483 7.54143 7.68383 7.86327 8.04431 8.19032 8.37434 8.56006 8.70987 8.89872 9.08936 9.24318 9.43711 9.63294 9.79098 9.99029 10.1916 10.3541 10.5591 10.7662 10.9334 11.1444 11.3576 11.5298 11.7472 11.9669 12.1445 12.3686 12.5953 12.7785 13.0098 13.2438 13.433 13.6721 13.914 14.1096 14.3569 14.6072 14.8097 15.0657 15.3251 15.535 15.8004 16.0695 16.2873 16.563 16.8424 17.0688 17.3555 17.6462 17.8819 18.1804 18.4835 18.7292 19.0406 19.357 19.6137 19.9392 20.2701 20.5387 20.8797 21.2265 21.5083 21.8663 22.2306 22.527 22.9036 23.2874 23.5999 23.9973 24.4027 24.7331 25.1538 25.5834 25.9339 26.3807 26.8376 27.2108 27.6871 28.1751 28.5741 29.0842 29.6076 30.0364 30.5855 31.1499 31.6132 32.2076 32.8201 33.3239 33.9719 34.6413 35.1934 35.9055 36.6437 37.2544 38.0447 38.8672 39.5503 40.4381 41.3669 42.142 43.1548 44.2211 45.1168 46.2955 47.5475 48.6083 50.0179 51.5337 52.8341 54.5874 56.5079 58.6309 61.0043 63.6949 66.801 70.4748 74.9712 78 0.609696 0.735085 0.86126 0.98823 1.116 1.24459 1.37401 1.50426 1.63536 1.76732 1.90015 2.03386 2.16846 2.30397 2.4404 2.55021 2.68832 2.82738 2.93932 3.08013 3.22194 3.3361 3.47972 3.62437 3.74085 3.88739 4.03501 4.15389 4.30349 4.4542 4.57558 4.72835 4.88229 5.00629 5.16237 5.31967 5.4464 5.60594 5.76675 5.89634 6.05949 6.22399 6.35655 6.5235 6.69183 6.82752 6.99843 7.1708 7.30977 7.48484 7.66144 7.80384 7.98327 8.16432 8.31033 8.49435 8.68007 8.82988 9.01873 9.20936 9.36318 9.55712 9.75294 9.91098 10.1103 10.3116 10.4741 10.6791 10.8862 11.0534 11.2644 11.4776 11.6498 11.8672 12.087 12.2645 12.4886 12.7153 12.8985 13.1298 13.3639 13.5531 13.7921 14.034 14.2296 14.4769 14.7272 14.9297 15.1857 15.4451 15.655 15.9204 16.1895 16.4073 16.683 16.9624 17.1889 17.4755 17.7663 18.0019 18.3005 18.6035 18.8492 19.1606 19.477 19.7337 20.0592 20.3901 20.6587 20.9997 21.3465 21.6284 21.9863 22.3507 22.647 23.0236 23.4074 23.7199 24.1173 24.5228 24.8531 25.2738 25.7034 26.0539 26.5007 26.9576 27.3308 27.8071 28.2951 28.6941 29.2042 29.7276 30.1564 30.7055 31.2699 31.7332 32.3276 32.9401 33.4439 34.0919 34.7614 35.3134 36.0255 36.7637 37.3744 38.1647 38.9872 39.6703 40.5581 41.4869 42.262 43.2748 44.3411 45.2368 46.4155 47.6675 48.7283 50.1379 51.6537 52.9541 54.7074 56.6279 58.7509 61.1243 63.8149 66.9211 70.5948 75.0912 78 0.730105 0.855494 0.981669 1.10864 1.23641 1.365 1.49442 1.62467 1.75577 1.88773 2.02056 2.15427 2.28887 2.42438 2.56081 2.67062 2.80872 2.94779 3.05973 3.20054 3.34234 3.45651 3.60013 3.74478 3.86126 4.0078 4.15542 4.2743 4.42389 4.57461 4.69599 4.84876 5.00269 5.12669 5.28278 5.44008 5.56681 5.72635 5.88716 6.01674 6.1799 6.34439 6.47696 6.6439 6.81224 6.94793 7.11884 7.29121 7.43018 7.60525 7.78185 7.92425 8.10368 8.28472 8.43074 8.61476 8.80047 8.95029 9.13914 9.32977 9.48359 9.67753 9.87335 10.0314 10.2307 10.432 10.5945 10.7995 11.0066 11.1738 11.3848 11.598 11.7703 11.9876 12.2074 12.3849 12.609 12.8357 13.0189 13.2502 13.4843 13.6735 13.9125 14.1544 14.35 14.5973 14.8476 15.0501 15.3061 15.5655 15.7754 16.0409 16.3099 16.5277 16.8034 17.0829 17.3093 17.5959 17.8867 18.1223 18.4209 18.7239 18.9696 19.2811 19.5974 19.8541 20.1796 20.5105 20.7792 21.1201 21.4669 21.7488 22.1067 22.4711 22.7674 23.144 23.5279 23.8403 24.2377 24.6432 24.9735 25.3942 25.8238 26.1743 26.6211 27.078 27.4512 27.9276 28.4155 28.8145 29.3247 29.8481 30.2768 30.8259 31.3903 31.8536 32.448 33.0605 33.5643 34.2123 34.8818 35.4339 36.1459 36.8841 37.4948 38.2851 39.1076 39.7907 40.6786 41.6073 42.3824 43.3952 44.4616 45.3573 46.536 47.7879 48.8487 50.2583 51.7741 53.0745 54.8278 56.7483 58.8713 61.2447 63.9353 67.0415 70.7152 75.2116 78 0.850919 0.976309 1.10248 1.22945 1.35723 1.48582 1.61523 1.74549 1.87659 2.00854 2.14137 2.27508 2.40969 2.54519 2.68162 2.79143 2.92954 3.0686 3.18054 3.32136 3.46316 3.57732 3.72094 3.8656 3.98207 4.12862 4.27624 4.39512 4.54471 4.69542 4.81681 4.96957 5.12351 5.24751 5.40359 5.56089 5.68762 5.84716 6.00798 6.13756 6.30072 6.46521 6.59777 6.76472 6.93306 7.06875 7.23966 7.41203 7.55099 7.72606 7.90266 8.04506 8.22449 8.40554 8.55155 8.73557 8.92129 9.0711 9.25995 9.45059 9.6044 9.79834 9.99417 10.1522 10.3515 10.5528 10.7153 10.9203 11.1274 11.2946 11.5056 11.7188 11.8911 12.1084 12.3282 12.5057 12.7299 12.9565 13.1397 13.371 13.6051 13.7943 14.0333 14.2752 14.4708 14.7181 14.9684 15.1709 15.4269 15.6863 15.8962 16.1617 16.4307 16.6485 16.9242 17.2037 17.4301 17.7167 18.0075 18.2432 18.5417 18.8447 19.0904 19.4019 19.7182 19.9749 20.3004 20.6313 20.9 21.2409 21.5878 21.8696 22.2275 22.5919 22.8882 23.2649 23.6487 23.9611 24.3585 24.764 25.0943 25.515 25.9446 26.2951 26.7419 27.1988 27.572 28.0484 28.5363 28.9353 29.4455 29.9689 30.3976 30.9467 31.5112 31.9744 32.5688 33.1813 33.6851 34.3331 35.0026 35.5547 36.2668 37.0049 37.6156 38.4059 39.2284 39.9116 40.7994 41.7281 42.5032 43.516 44.5824 45.4781 46.6568 47.9087 48.9695 50.3792 51.8949 53.1954 54.9486 56.8691 58.9922 61.3655 64.0561 67.1623 70.8361 75.3324 78 0.972142 1.09753 1.22371 1.35068 1.47845 1.60704 1.73646 1.86671 1.99781 2.12977 2.2626 2.39631 2.53091 2.66642 2.80284 2.91265 3.05076 3.18982 3.30177 3.44258 3.58438 3.69855 3.84217 3.98682 4.10329 4.24984 4.39746 4.51634 4.66593 4.81664 4.93803 5.0908 5.24473 5.36873 5.52481 5.68211 5.80884 5.96838 6.1292 6.25878 6.42194 6.58643 6.719 6.88594 7.05428 7.18997 7.36088 7.53325 7.67222 7.84728 8.02388 8.16629 8.34572 8.52676 8.67278 8.8568 9.04251 9.19233 9.38117 9.57181 9.72563 9.91957 10.1154 10.2734 10.4727 10.674 10.8365 11.0415 11.2486 11.4158 11.6268 11.8401 12.0123 12.2297 12.4494 12.6269 12.8511 13.0777 13.2609 13.4923 13.7263 13.9155 14.1545 14.3964 14.5921 14.8393 15.0896 15.2921 15.5482 15.8075 16.0174 16.2829 16.5519 16.7698 17.0454 17.3249 17.5513 17.8379 18.1287 18.3644 18.6629 18.9659 19.2116 19.5231 19.8394 20.0961 20.4216 20.7525 21.0212 21.3622 21.709 21.9908 22.3487 22.7131 23.0094 23.3861 23.7699 24.0823 24.4798 24.8852 25.2155 25.6362 26.0659 26.4163 26.8631 27.3201 27.6932 28.1696 28.6575 29.0565 29.5667 30.0901 30.5188 31.0679 31.6324 32.0956 32.6901 33.3026 33.8063 34.4543 35.1238 35.6759 36.388 37.1262 37.7368 38.5271 39.3497 40.0328 40.9206 41.8493 42.6244 43.6372 44.7036 45.5993 46.778 48.0299 49.0907 50.5004 52.0161 53.3166 55.0699 56.9904 59.1134 61.4867 64.1774 67.2835 70.9573 75.4536 78 1.09378 1.21916 1.34534 1.47231 1.60008 1.72867 1.85809 1.98834 2.11944 2.2514 2.38423 2.51794 2.65254 2.78805 2.92448 3.03429 3.17239 3.31146 3.4234 3.56421 3.70601 3.82018 3.9638 4.10845 4.22493 4.37147 4.51909 4.63797 4.78756 4.93828 5.05966 5.21243 5.36636 5.49037 5.64645 5.80375 5.93048 6.09002 6.25083 6.38042 6.54357 6.70806 6.84063 7.00757 7.17591 7.3116 7.48251 7.65488 7.79385 7.96892 8.14552 8.28792 8.46735 8.64839 8.79441 8.97843 9.16414 9.31396 9.50281 9.69344 9.84726 10.0412 10.237 10.3951 10.5944 10.7957 10.9582 11.1632 11.3703 11.5375 11.7485 11.9617 12.1339 12.3513 12.571 12.7486 12.9727 13.1994 13.3826 13.6139 13.8479 14.0371 14.2762 14.5181 14.7137 14.9609 15.2113 15.4138 15.6698 15.9291 16.139 16.4045 16.6736 16.8914 17.167 17.4465 17.6729 17.9596 18.2503 18.486 18.7845 19.0875 19.3333 19.6447 19.9611 20.2177 20.5433 20.8742 21.1428 21.4838 21.8306 22.1124 22.4703 22.8347 23.1311 23.5077 23.8915 24.2039 24.6014 25.0068 25.3372 25.7579 26.1875 26.5379 26.9848 27.4417 27.8148 28.2912 28.7791 29.1782 29.6883 30.2117 30.6405 31.1895 31.754 32.2172 32.8117 33.4242 33.928 34.5759 35.2454 35.7975 36.5096 37.2478 37.8584 38.6487 39.4713 40.1544 41.0422 41.971 42.7461 43.7588 44.8252 45.7209 46.8996 48.1516 49.2124 50.622 52.1378 53.4382 55.1915 57.112 59.235 61.6083 64.299 67.4051 71.0789 75.5753 78 1.21582 1.34121 1.46739 1.59436 1.72213 1.85072 1.98014 2.11039 2.24149 2.37345 2.50628 2.63999 2.77459 2.9101 3.04652 3.15633 3.29444 3.4335 3.54545 3.68626 3.82806 3.94223 4.08585 4.2305 4.34697 4.49352 4.64114 4.76002 4.90961 5.06032 5.18171 5.33448 5.48841 5.61241 5.76849 5.92579 6.05252 6.21206 6.37288 6.50246 6.66562 6.83011 6.96268 7.12962 7.29796 7.43365 7.60456 7.77693 7.9159 8.09096 8.26756 8.40997 8.5894 8.77044 8.91646 9.10048 9.28619 9.43601 9.62485 9.81549 9.96931 10.1632 10.3591 10.5171 10.7164 10.9177 11.0802 11.2852 11.4923 11.6595 11.8705 12.0837 12.256 12.4733 12.6931 12.8706 13.0948 13.3214 13.5046 13.7359 13.97 14.1592 14.3982 14.6401 14.8357 15.083 15.3333 15.5358 15.7919 16.0512 16.2611 16.5266 16.7956 17.0134 17.2891 17.5686 17.795 18.0816 18.3724 18.6081 18.9066 19.2096 19.4553 19.7668 20.0831 20.3398 20.6653 20.9962 21.2649 21.6058 21.9527 22.2345 22.5924 22.9568 23.2531 23.6298 24.0136 24.326 24.7234 25.1289 25.4592 25.8799 26.3096 26.66 27.1068 27.5637 27.9369 28.4133 28.9012 29.3002 29.8104 30.3338 30.7625 31.3116 31.8761 32.3393 32.9337 33.5462 34.05 34.698 35.3675 35.9196 36.6317 37.3698 37.9805 38.7708 39.5934 40.2765 41.1643 42.093 42.8681 43.8809 44.9473 45.843 47.0217 48.2736 49.3344 50.7441 52.2598 53.5603 55.3135 57.234 59.3571 61.7304 64.421 67.5272 71.201 75.6973 78 1.33829 1.46368 1.58985 1.71682 1.84459 1.97318 2.1026 2.23285 2.36395 2.49591 2.62874 2.76245 2.89705 3.03256 3.16899 3.2788 3.4169 3.55597 3.66791 3.80872 3.95052 4.06469 4.20831 4.35296 4.46944 4.61598 4.7636 4.88248 5.03208 5.18279 5.30417 5.45694 5.61088 5.73488 5.89096 6.04826 6.17499 6.33453 6.49534 6.62493 6.78808 6.95258 7.08514 7.25209 7.42042 7.55611 7.72702 7.89939 8.03836 8.21343 8.39003 8.53243 8.71186 8.8929 9.03892 9.22294 9.40866 9.55847 9.74732 9.93795 10.0918 10.2857 10.4815 10.6396 10.8389 11.0402 11.2027 11.4077 11.6148 11.782 11.993 12.2062 12.3784 12.5958 12.8155 12.9931 13.2172 13.4439 13.6271 13.8584 14.0924 14.2816 14.5207 14.7626 14.9582 15.2054 15.4558 15.6583 15.9143 16.1737 16.3835 16.649 16.9181 17.1359 17.4116 17.691 17.9174 18.2041 18.4948 18.7305 19.029 19.3321 19.5778 19.8892 20.2056 20.4623 20.7878 21.1187 21.3873 21.7283 22.0751 22.3569 22.7149 23.0792 23.3756 23.7522 24.136 24.4484 24.8459 25.2513 25.5817 26.0024 26.432 26.7825 27.2293 27.6862 28.0594 28.5357 29.0237 29.4227 29.9328 30.4562 30.885 31.4341 31.9985 32.4618 33.0562 33.6687 34.1725 34.8204 35.4899 36.042 36.7541 37.4923 38.103 38.8933 39.7158 40.3989 41.2867 42.2155 42.9906 44.0033 45.0697 45.9654 47.1441 48.3961 49.4569 50.8665 52.3823 53.6827 55.436 57.3565 59.4795 61.8529 64.5435 67.6496 71.3234 75.8198 78 1.46117 1.58656 1.71273 1.8397 1.96748 2.09607 2.22548 2.35574 2.48684 2.61879 2.75162 2.88533 3.01994 3.15544 3.29187 3.40168 3.53979 3.67885 3.79079 3.93161 4.07341 4.18757 4.33119 4.47585 4.59232 4.73887 4.88649 5.00537 5.15496 5.30567 5.42706 5.57982 5.73376 5.85776 6.01384 6.17114 6.29787 6.45741 6.61823 6.74781 6.91097 7.07546 7.20802 7.37497 7.54331 7.679 7.84991 8.02228 8.16124 8.33631 8.51291 8.65531 8.83474 9.01579 9.1618 9.34582 9.53154 9.68135 9.8702 10.0608 10.2147 10.4086 10.6044 10.7625 10.9618 11.1631 11.3256 11.5306 11.7376 11.9049 12.1159 12.3291 12.5013 12.7187 12.9384 13.116 13.3401 13.5668 13.7499 13.9813 14.2153 14.4045 14.6436 14.8855 15.0811 15.3283 15.5786 15.7812 16.0372 16.2965 16.5064 16.7719 17.0409 17.2588 17.5344 17.8139 18.0403 18.327 18.6177 18.8534 19.1519 19.4549 19.7007 20.0121 20.3285 20.5851 20.9107 21.2416 21.5102 21.8512 22.198 22.4798 22.8377 23.2021 23.4985 23.8751 24.2589 24.5713 24.9688 25.3742 25.7046 26.1252 26.5549 26.9053 27.3521 27.8091 28.1822 28.6586 29.1465 29.5456 30.0557 30.5791 31.0079 31.5569 32.1214 32.5846 33.1791 33.7916 34.2954 34.9433 35.6128 36.1649 36.877 37.6152 38.2258 39.0161 39.8387 40.5218 41.4096 42.3384 43.1135 44.1262 45.1926 46.0883 47.267 48.519 49.5797 50.9894 52.5052 53.8056 55.5589 57.4794 59.6024 61.9757 64.6664 67.7725 71.4463 75.9427 78 1.58447 1.70986 1.83604 1.96301 2.09078 2.21937 2.34879 2.47904 2.61014 2.7421 2.87493 3.00864 3.14324 3.27875 3.41517 3.52498 3.66309 3.80216 3.9141 4.05491 4.19671 4.31088 4.4545 4.59915 4.71563 4.86217 5.00979 5.12867 5.27826 5.42897 5.55036 5.70313 5.85706 5.98106 6.13715 6.29445 6.42118 6.58072 6.74153 6.87111 7.03427 7.19876 7.33133 7.49827 7.66661 7.8023 7.97321 8.14558 8.28455 8.45961 8.63622 8.77862 8.95805 9.13909 9.28511 9.46913 9.65484 9.80466 9.99351 10.1841 10.338 10.5319 10.7277 10.8858 11.0851 11.2864 11.4489 11.6539 11.861 12.0282 12.2392 12.4524 12.6246 12.842 13.0617 13.2393 13.4634 13.6901 13.8733 14.1046 14.3386 14.5278 14.7669 15.0088 15.2044 15.4516 15.702 15.9045 16.1605 16.4198 16.6297 16.8952 17.1643 17.3821 17.6577 17.9372 18.1636 18.4503 18.741 18.9767 19.2752 19.5782 19.824 20.1354 20.4518 20.7084 21.034 21.3649 21.6335 21.9745 22.3213 22.6031 22.961 23.3254 23.6218 23.9984 24.3822 24.6946 25.0921 25.4975 25.8279 26.2485 26.6782 27.0286 27.4755 27.9324 28.3055 28.7819 29.2698 29.6689 30.179 30.7024 31.1312 31.6802 32.2447 32.7079 33.3024 33.9149 34.4187 35.0666 35.7361 36.2882 37.0003 37.7385 38.3491 39.1394 39.962 40.6451 41.5329 42.4617 43.2368 44.2495 45.3159 46.2116 47.3903 48.6423 49.703 51.1127 52.6285 53.9289 55.6822 57.6027 59.7257 62.099 64.7897 67.8958 71.5696 76.066 78 1.7082 1.83359 1.95977 2.08674 2.21451 2.3431 2.47252 2.60277 2.73387 2.86583 2.99866 3.13237 3.26697 3.40248 3.53891 3.64871 3.78682 3.92589 4.03783 4.17864 4.32044 4.43461 4.57823 4.72288 4.83936 4.9859 5.13352 5.2524 5.40199 5.55271 5.67409 5.82686 5.98079 6.10479 6.26088 6.41818 6.54491 6.70445 6.86526 6.99484 7.158 7.32249 7.45506 7.622 7.79034 7.92603 8.09694 8.26931 8.40828 8.58335 8.75995 8.90235 9.08178 9.26282 9.40884 9.59286 9.77857 9.92839 10.1172 10.3079 10.4617 10.6556 10.8515 11.0095 11.2088 11.4101 11.5726 11.7776 11.9847 12.1519 12.3629 12.5761 12.7484 12.9657 13.1855 13.363 13.5871 13.8138 13.997 14.2283 14.4624 14.6516 14.8906 15.1325 15.3281 15.5754 15.8257 16.0282 16.2842 16.5436 16.7535 17.019 17.288 17.5058 17.7815 18.061 18.2874 18.574 18.8648 19.1004 19.399 19.702 19.9477 20.2592 20.5755 20.8322 21.1577 21.4886 21.7573 22.0982 22.445 22.7269 23.0848 23.4492 23.7455 24.1221 24.506 24.8184 25.2158 25.6213 25.9516 26.3723 26.8019 27.1524 27.5992 28.0561 28.4293 28.9057 29.3936 29.7926 30.3028 30.8262 31.2549 31.804 32.3684 32.8317 33.4261 34.0386 34.5424 35.1904 35.8599 36.412 37.124 37.8622 38.4729 39.2632 40.0857 40.7688 41.6567 42.5854 43.3605 44.3733 45.4397 46.3354 47.5141 48.766 49.8268 51.2364 52.7522 54.0526 55.8059 57.7264 59.8494 62.2228 64.9134 68.0196 71.6933 76.1897 78 1.83236 1.95775 2.08393 2.2109 2.33867 2.46726 2.59668 2.72693 2.85803 2.98999 3.12282 3.25653 3.39113 3.52664 3.66306 3.77287 3.91098 4.05004 4.16199 4.3028 4.4446 4.55877 4.70239 4.84704 4.96352 5.11006 5.25768 5.37656 5.52615 5.67686 5.79825 5.95102 6.10495 6.22895 6.38503 6.54233 6.66906 6.82861 6.98942 7.119 7.28216 7.44665 7.57922 7.74616 7.9145 8.05019 8.2211 8.39347 8.53244 8.7075 8.8841 9.02651 9.20594 9.38698 9.533 9.71702 9.90273 10.0525 10.2414 10.432 10.5858 10.7798 10.9756 11.1336 11.333 11.5343 11.6968 11.9017 12.1088 12.2761 12.4871 12.7003 12.8725 13.0899 13.3096 13.4872 13.7113 13.938 14.1211 14.3525 14.5865 14.7757 15.0148 15.2567 15.4523 15.6995 15.9498 16.1524 16.4084 16.6677 16.8776 17.1431 17.4121 17.63 17.9056 18.1851 18.4115 18.6982 18.9889 19.2246 19.5231 19.8261 20.0719 20.3833 20.6996 20.9563 21.2819 21.6127 21.8814 22.2224 22.5692 22.851 23.2089 23.5733 23.8696 24.2463 24.6301 24.9425 25.34 25.7454 26.0758 26.4964 26.9261 27.2765 27.7233 28.1803 28.5534 29.0298 29.5177 29.9168 30.4269 30.9503 31.3791 31.9281 32.4926 32.9558 33.5503 34.1628 34.6666 35.3145 35.984 36.5361 37.2482 37.9864 38.597 39.3873 40.2099 40.893 41.7808 42.7096 43.4846 44.4974 45.5638 46.4595 47.6382 48.8902 49.9509 51.3606 52.8764 54.1768 55.9301 57.8506 59.9736 62.3469 65.0376 68.1437 71.8175 76.3138 78 1.95695 2.08234 2.20852 2.33549 2.46326 2.59185 2.72127 2.85152 2.98262 3.11458 3.24741 3.38112 3.51572 3.65123 3.78765 3.89746 4.03557 4.17463 4.28658 4.42739 4.56919 4.68336 4.82698 4.97163 5.08811 5.23465 5.38227 5.50115 5.65074 5.80145 5.92284 6.07561 6.22954 6.35354 6.50962 6.66692 6.79365 6.9532 7.11401 7.24359 7.40675 7.57124 7.70381 7.87075 8.03909 8.17478 8.34569 8.51806 8.65703 8.83209 9.00869 9.1511 9.33053 9.51157 9.65759 9.84161 10.0273 10.1771 10.366 10.5566 10.7104 10.9044 11.1002 11.2582 11.4575 11.6588 11.8213 12.0263 12.2334 12.4007 12.6116 12.8249 12.9971 13.2145 13.4342 13.6117 13.8359 14.0625 14.2457 14.4771 14.7111 14.9003 15.1393 15.3812 15.5769 15.8241 16.0744 16.2769 16.533 16.7923 17.0022 17.2677 17.5367 17.7546 18.0302 18.3097 18.5361 18.8227 19.1135 19.3492 19.6477 19.9507 20.1965 20.5079 20.8242 21.0809 21.4065 21.7373 22.006 22.347 22.6938 22.9756 23.3335 23.6979 23.9942 24.3709 24.7547 25.0671 25.4646 25.87 26.2003 26.621 27.0507 27.4011 27.8479 28.3049 28.678 29.1544 29.6423 30.0413 30.5515 31.0749 31.5036 32.0527 32.6172 33.0804 33.6749 34.2874 34.7912 35.4391 36.1086 36.6607 37.3728 38.111 38.7216 39.5119 40.3345 41.0176 41.9054 42.8341 43.6092 44.622 45.6884 46.5841 47.7628 49.0148 50.0755 51.4852 53.0009 54.3014 56.0547 57.9752 60.0982 62.4715 65.1622 68.2683 71.9421 76.4384 78 2.08198 2.20737 2.33354 2.46051 2.58829 2.71688 2.84629 2.97654 3.10764 3.2396 3.37243 3.50614 3.64074 3.77625 3.91268 4.02249 4.1606 4.29966 4.4116 4.55241 4.69422 4.80838 4.952 5.09665 5.21313 5.35968 5.50729 5.62617 5.77577 5.92648 6.04786 6.20063 6.35457 6.47857 6.63465 6.79195 6.91868 7.07822 7.23903 7.36862 7.53178 7.69627 7.82883 7.99578 8.16412 8.29981 8.47071 8.64309 8.78205 8.95712 9.13372 9.27612 9.45555 9.6366 9.78261 9.96663 10.1523 10.3022 10.491 10.6816 10.8355 11.0294 11.2252 11.3833 11.5826 11.7839 11.9464 12.1514 12.3585 12.5257 12.7367 12.9499 13.1221 13.3395 13.5592 13.7368 13.9609 14.1876 14.3708 14.6021 14.8361 15.0253 15.2644 15.5063 15.7019 15.9491 16.1995 16.402 16.658 16.9173 17.1272 17.3927 17.6618 17.8796 18.1552 18.4347 18.6611 18.9478 19.2385 19.4742 19.7727 20.0757 20.3215 20.6329 20.9493 21.206 21.5315 21.8624 22.131 22.472 22.8188 23.1006 23.4585 23.8229 24.1193 24.4959 24.8797 25.1921 25.5896 25.995 26.3254 26.7461 27.1757 27.5261 27.973 28.4299 28.803 29.2794 29.7673 30.1664 30.6765 31.1999 31.6287 32.1777 32.7422 33.2055 33.7999 34.4124 34.9162 35.5641 36.2336 36.7857 37.4978 38.236 38.8466 39.6369 40.4595 41.1426 42.0304 42.9592 43.7343 44.747 45.8134 46.7091 47.8878 49.1398 50.2006 51.6102 53.126 54.4264 56.1797 58.1002 60.2232 62.5965 65.2872 68.3933 72.0671 76.5635 78 2.20744 2.33283 2.459 2.58597 2.71375 2.84234 2.97175 3.102 3.2331 3.36506 3.49789 3.6316 3.7662 3.90171 4.03814 4.14795 4.28606 4.42512 4.53706 4.67788 4.81968 4.93384 5.07746 5.22212 5.33859 5.48514 5.63276 5.75164 5.90123 6.05194 6.17332 6.32609 6.48003 6.60403 6.76011 6.91741 7.04414 7.20368 7.3645 7.49408 7.65724 7.82173 7.95429 8.12124 8.28958 8.42527 8.59618 8.76855 8.90751 9.08258 9.25918 9.40158 9.58101 9.76206 9.90807 10.0921 10.2778 10.4276 10.6165 10.8071 10.9609 11.1549 11.3507 11.5087 11.708 11.9093 12.0718 12.2768 12.4839 12.6511 12.8621 13.0754 13.2476 13.465 13.6847 13.8622 14.0864 14.313 14.4962 14.7276 14.9616 15.1508 15.3898 15.6317 15.8274 16.0746 16.3249 16.5274 16.7835 17.0428 17.2527 17.5182 17.7872 18.0051 18.2807 18.5602 18.7866 19.0732 19.364 19.5997 19.8982 20.2012 20.4469 20.7584 21.0747 21.3314 21.6569 21.9878 22.2565 22.5974 22.9443 23.2261 23.584 23.9484 24.2447 24.6214 25.0052 25.3176 25.715 26.1205 26.4508 26.8715 27.3012 27.6516 28.0984 28.5553 28.9285 29.4049 29.8928 30.2918 30.802 31.3254 31.7541 32.3032 32.8677 33.3309 33.9253 34.5379 35.0416 35.6896 36.3591 36.9112 37.6233 38.3615 38.9721 39.7624 40.585 41.2681 42.1559 43.0846 43.8597 44.8725 45.9389 46.8346 48.0133 49.2652 50.326 51.7357 53.2514 54.5519 56.3052 58.2257 60.3487 62.722 65.4127 68.5188 72.1926 76.6889 78 2.33334 2.45873 2.5849 2.71187 2.83965 2.96824 3.09765 3.22791 3.35901 3.49096 3.62379 3.7575 3.89211 4.02761 4.16404 4.27385 4.41196 4.55102 4.66297 4.80378 4.94558 5.05974 5.20336 5.34802 5.46449 5.61104 5.75866 5.87754 6.02713 6.17784 6.29923 6.45199 6.60593 6.72993 6.88601 7.04331 7.17004 7.32958 7.4904 7.61998 7.78314 7.94763 8.0802 8.24714 8.41548 8.55117 8.72208 8.89445 9.03341 9.20848 9.38508 9.52748 9.70691 9.88796 10.034 10.218 10.4037 10.5535 10.7424 10.933 11.0868 11.2808 11.4766 11.6346 11.8339 12.0352 12.1977 12.4027 12.6098 12.777 12.988 13.2013 13.3735 13.5909 13.8106 13.9881 14.2123 14.4389 14.6221 14.8535 15.0875 15.2767 15.5157 15.7576 15.9533 16.2005 16.4508 16.6533 16.9094 17.1687 17.3786 17.6441 17.9131 18.131 18.4066 18.6861 18.9125 19.1991 19.4899 19.7256 20.0241 20.3271 20.5728 20.8843 21.2006 21.4573 21.7828 22.1137 22.3824 22.7233 23.0702 23.352 23.7099 24.0743 24.3706 24.7473 25.1311 25.4435 25.8409 26.2464 26.5767 26.9974 27.4271 27.7775 28.2243 28.6813 29.0544 29.5308 30.0187 30.4177 30.9279 31.4513 31.88 32.4291 32.9936 33.4568 34.0513 34.6638 35.1675 35.8155 36.485 37.0371 37.7492 38.4874 39.098 39.8883 40.7109 41.394 42.2818 43.2105 43.9856 44.9984 46.0648 46.9605 48.1392 49.3911 50.4519 51.8616 53.3773 54.6778 56.4311 58.3516 60.4746 62.8479 65.5386 68.6447 72.3185 76.8148 78 2.45968 2.58507 2.71125 2.83822 2.96599 3.09458 3.224 3.35425 3.48535 3.61731 3.75014 3.88385 4.01845 4.15396 4.29038 4.40019 4.5383 4.67736 4.78931 4.93012 5.07192 5.18609 5.32971 5.47436 5.59084 5.73738 5.885 6.00388 6.15347 6.30418 6.42557 6.57834 6.73227 6.85627 7.01236 7.16966 7.29638 7.45593 7.61674 7.74632 7.90948 8.07397 8.20654 8.37348 8.54182 8.67751 8.84842 9.02079 9.15976 9.33482 9.51142 9.65383 9.83326 10.0143 10.1603 10.3443 10.5301 10.6799 10.8687 11.0594 11.2132 11.4071 11.6029 11.761 11.9603 12.1616 12.3241 12.5291 12.7362 12.9034 13.1144 13.3276 13.4998 13.7172 13.9369 14.1145 14.3386 14.5653 14.7485 14.9798 15.2138 15.403 15.6421 15.884 16.0796 16.3268 16.5772 16.7797 17.0357 17.295 17.5049 17.7704 18.0395 18.2573 18.533 18.8124 19.0388 19.3255 19.6162 19.8519 20.1504 20.4535 20.6992 21.0106 21.327 21.5837 21.9092 22.2401 22.5087 22.8497 23.1965 23.4783 23.8363 24.2006 24.497 24.8736 25.2574 25.5698 25.9673 26.3727 26.7031 27.1238 27.5534 27.9039 28.3507 28.8076 29.1808 29.6571 30.1451 30.5441 31.0542 31.5776 32.0064 32.5555 33.1199 33.5832 34.1776 34.7901 35.2939 35.9418 36.6113 37.1634 37.8755 38.6137 39.2244 40.0146 40.8372 41.5203 42.4081 43.3369 44.112 45.1247 46.1911 47.0868 48.2655 49.5175 50.5783 51.9879 53.5037 54.8041 56.5574 58.4779 60.6009 62.9742 65.6649 68.771 72.4448 76.9412 78 2.58648 2.71186 2.83804 2.96501 3.09278 3.22137 3.35079 3.48104 3.61214 3.7441 3.87693 4.01064 4.14524 4.28075 4.41718 4.52699 4.66509 4.80416 4.9161 5.05691 5.19871 5.31288 5.4565 5.60115 5.71763 5.86417 6.01179 6.13067 6.28026 6.43098 6.55236 6.70513 6.85906 6.98306 7.13915 7.29645 7.42318 7.58272 7.74353 7.87311 8.03627 8.20076 8.33333 8.50027 8.66861 8.8043 8.97521 9.14758 9.28655 9.46162 9.63822 9.78062 9.96005 10.1411 10.2871 10.4711 10.6568 10.8067 10.9955 11.1861 11.34 11.5339 11.7297 11.8878 12.0871 12.2884 12.4509 12.6559 12.863 13.0302 13.2412 13.4544 13.6266 13.844 14.0637 14.2413 14.4654 14.6921 14.8753 15.1066 15.3406 15.5298 15.7689 16.0108 16.2064 16.4536 16.704 16.9065 17.1625 17.