<?xml version="1.0"?><VTKFile type="PolyData" version="0.1" byte_order="LittleEndian">
<PolyData>
<Piece NumberOfLines="119" NumberOfPoints="691">
<PointData Scalars=" PointData">
<DataArray type="Float32" Name="time" NumberOfComponents="1" format="ascii" >
0 0.0532813 0.501331 1.02641 1.49531 1.97507 2.52388 3.05079 3.4762 3.94383 4.39343 4.87825 5.39498 5.85127 6.3867 6.90552 7.45328 8.01919 8.58286 9.15941 9.78793 10.3782 10.8779 11.4219 12.0147 12.5633 13.1569 13.8109 14.4619 15.0869 15.6238 16.2789 16.9178 17 0.102265 0.157804 0.864931 1.70154 2.55126 3.25147 4.22099 5.04925 6.06519 7.03096 7.90738 8.88054 9.76307 10.8523 11.82 13.0223 14.0859 15.1926 16.2886 17 9.2461 11.5103 14.0415 16.9112 17 10.0892 12.146 14.4454 17 11.0895 13.149 15.4513 17 12.1088 14.2088 16.5564 17 12.9512 14.8574 16.9883 17 14.1215 16.351 17 15.1249 17 16.3604 17 0.55075 0.597266 1.35085 2.09706 3.05863 3.94199 4.80694 5.77566 6.70003 7.51759 8.53628 9.36151 10.3389 11.2113 12.2286 13.1102 14.0428 14.8305 15.8354 16.9218 17 7.71071 10.0345 12.6323 15.5774 17 8.58661 10.6313 12.917 15.5084 17 9.45616 11.6261 14.0519 16.8021 17 10.58 12.7424 15.1597 17 11.6159 14.0076 16.6814 17 12.6334 14.3551 16.2797 17 13.7769 15.738 17 14.8721 17 15.844 17 1.07635 1.11849 1.94203 2.75942 3.52532 4.28629 4.99914 5.74184 6.68957 7.69376 8.65506 9.50867 10.4759 11.3679 12.4187 13.4747 14.4685 15.4791 16.5172 17 11.6479 13.5869 15.7545 17 12.652 14.7582 17 13.6521 15.8827 17 14.5923 16.6606 17 15.5294 17 16.4102 17 1.54571 1.60022 2.56365 3.45295 4.39406 5.34215 6.17276 7.27467 8.29716 9.36572 10.243 11.2519 12.3719 13.461 14.4926 15.4764 16.4991 17 9.83485 12.1041 14.641 17 10.9609 13.0147 15.3107 17 12.0035 13.8866 15.9918 17 13.11 15.0774 17 14.2283 16.2133 17 15.211 17 16.519 17 2.02595 2.07331 2.86232 3.59536 4.45094 5.33805 6.0313 6.76554 7.63187 8.53072 9.48688 10.3429 11.3496 12.3656 13.4389 14.7358 15.7515 16.6845 17 11.0882 13.3746 15.9305 17 12.0284 14.0214 16.2494 17 12.9044 14.9688 17 13.93 16.1354 17 14.9969 17 15.8333 17 16.7216 17 2.57531 2.62311 3.35111 4.00246 4.8163 5.5588 6.28373 7.01534 7.72466 8.48978 9.32509 10.0283 10.9589 11.687 12.6183 13.5441 14.4259 15.4813 16.4574 17 9.70652 11.6715 13.8682 16.3586 17 10.5603 12.8588 15.4284 17 11.3262 13.2672 15.4371 17 12.2859 14.719 17 13.1643 15.4993 17 14.0244 16.2573 17 14.8952 16.863 17 15.7421 17 16.6585 17 3.10276 3.14841 3.9405 4.73441 5.42453 6.2748 7.06418 7.98492 8.83193 9.74706 10.6393 11.636 12.4948 13.5364 14.6109 15.4613 16.5351 17 13.2864 15.3577 17 14.2511 16.5798 17 15.2213 17 16.0674 17 3.5286 3.58819 4.54235 5.42583 6.2967 7.17767 8.19913 9.3284 10.3281 11.4092 12.4632 13.5505 14.7423 15.7194 16.9183 17 13.0508 15.1972 17 14.1802 16.4278 17 15.2291 17 16.266 17 3.99672 4.04752 4.87859 5.72507 6.69346 7.59676 8.39476 9.49733 10.4347 11.341 12.4263 13.3173 14.0964 15.0859 16.3526 17 13.4151 15.9662 17 14.4028 16.7163 17 15.4117 17 16.5697 17 4.44679 4.49319 5.18276 5.83956 6.59607 7.24658 8.11758 8.94191 9.86895 10.7049 11.502 12.1905 13.1441 14.1838 15.1365 16.0705 17 11.5083 13.5957 15.9291 17 12.3128 14.5733 17 13.0809 15.3262 17 13.9679 15.9821 17 14.7327 16.7474 17 15.7598 17 16.735 17 4.93213 4.9729 5.66771 6.45515 7.15726 7.76536 8.54744 9.3581 9.98918 10.7928 11.4858 12.2471 13.1216 13.9109 14.6858 15.4281 16.3695 17 11.1881 13.4814 16.0451 17 11.9911 14.2937 16.8678 17 12.9035 14.9934 17 13.7193 15.9438 17 14.4276 16.4753 17 15.341 17 16.2908 17 5.4494 5.49279 6.27044 7.19488 8.11742 9.12548 10.015 10.9845 11.9593 13.2014 14.1631 15.3449 16.2602 17 14.5697 16.6463 17 15.4829 17 16.5714 17 5.90619 5.95551 6.88755 7.75617 8.59059 9.54211 10.597 11.3363 12.2354 13.0699 13.8488 14.9936 15.8406 16.7391 17 14.475 16.407 17 15.5785 17 16.6102 17 6.4422 6.4871 7.16171 8.02101 8.89253 9.77134 10.4791 11.3933 12.2645 13.1564 14.1238 14.8912 15.7999 16.7508 17 13.482 15.4087 17 14.2626 16.4346 17 15.2595 16.9757 17 16.2734 17 6.96159 7.01697 7.81339 8.57475 9.36128 10.0639 10.8569 11.7155 12.5377 13.486 14.5039 15.3263 16.3143 17 7.50995 7.55277 8.31229 9.10749 9.88586 10.6354 11.3016 11.9371 12.8116 13.5279 14.4395 15.3635 16.1972 17 14.845 16.7378 17 15.7386 17 16.677 17 8.0765 8.12085 8.94462 9.6072 10.4053 11.3387 12.2049 13.0153 13.787 14.6408 15.5839 16.5143 17 16.1265 17 8.64082 8.68489 9.44961 10.312 11.1215 12.0636 12.9253 13.9668 14.777 15.6849 16.4625 17 9.21802 9.27127 10.0162 10.8496 11.5716 12.3932 13.0601 13.9482 14.6863 15.4056 16.1599 17 9.84728 9.89758 10.612 11.2301 11.8699 12.6429 13.4849 14.119 14.9526 15.7979 16.7268 17 10.4383 10.4869 11.222 11.9609 12.6557 13.4395 14.1786 14.9418 15.7769 16.4568 17 10.9386 10.9888 11.9514 12.7398 13.6645 14.4804 15.2614 16.0169 16.8389 17 11.4832 11.5313 12.3475 13.2581 14.0388 14.822 15.7455 16.679 17 12.0768 12.1336 12.9098 13.8393 14.6346 15.5594 16.4997 17 12.626 12.673 13.3574 14.0647 14.8275 15.568 16.2627 17 13.2203 13.2652 14.0628 14.789 15.548 16.3003 17 13.8752 13.943 14.9445 15.7917 16.7167 17 14.527 14.586 15.5881 16.5623 17 15.1528 15.2048 15.8813 16.6417 17 15.6904 15.734 16.5432 17 16.3463 16.3901 17 16.9861 17 
</DataArray>

</PointData>
<CellData Scalars=" CellData">
<DataArray type="Float32" Name="radius" NumberOfComponents="1" format="ascii" >
0.046455 0.025858 0.0234573 0.0237972 0.0228927 0.0184214 0.0200674 0.0177904 0.022374 0.0191906 0.0287951 0.0217519 0.0225014 0.0250926 0.0193012 0.0208534 0.0210294 0.0161626 0.0210337 0.0181745 0.0294569 0.0177559 0.0184693 0.0180706 0.0192111 0.0209114 0.0208144 0.0293743 0.0204318 0.0234532 0.0177695 0.023637 0.0237284 0.0174725 0.0160019 0.0311556 0.0212929 0.017882 0.0197277 0.0195936 0.0197648 0.0173397 0.0199189 0.028812 0.020436 0.0234499 0.0207765 0.0186585 0.020012 0.0229694 0.017377 0.0191298 0.0186494 0.02533 0.0208548 0.0258188 0.0179141 0.0238973 0.0250647 0.0249773 0.0211228 0.0166549 0.0196422 0.0234761 0.0214047 0.0203581 0.0171164 0.0179302 0.02198 0.0170007 0.0207015 0.0234353 0.0223274 0.0219811 0.0221228 0.019954 0.0278401 0.0181853 0.0188031 0.0243553 0.0196861 0.0218983 0.020763 0.0206941 0.0306039 0.0190731 0.0207159 0.0223084 0.0275319 0.0213477 0.0208879 0.0201093 0.0284815 0.0205072 0.0204751 0.0200703 0.0201268 0.0283738 0.0307665 0.0197225 0.0186865 0.022274 0.0262928 0.0216084 0.0262343 0.0249232 0.027258 0.0291227 0.0253512 0.0235758 0.0261462 0.0318439 0.0312926 0.0250679 0.0303504 0.0237133 0.0240463 0.0304936 0.0271101 
</DataArray>
<DataArray type="Float32" Name="subType" NumberOfComponents="1" format="ascii" >
1 2 3 3 3 3 3 3 3 3 2 3 3 3 3 3 3 3 3 3 2 3 3 3 3 3 3 2 3 3 3 3 3 3 3 2 3 3 3 3 3 3 3 2 3 3 3 3 3 3 3 3 3 2 3 3 3 3 2 3 3 3 3 2 3 3 3 3 2 3 3 3 3 3 3 3 2 3 3 3 3 3 3 3 2 3 3 3 2 3 3 3 2 3 3 3 3 2 2 3 3 3 2 3 2 2 2 2 2 2 2 2 2 2 2 2 2 2 2 
</DataArray>
<DataArray type="Float32" Name="creationTime" NumberOfComponents="1" format="ascii" >
0 0.102265 9.2461 10.0892 11.0895 12.1088 12.9512 14.1215 15.1249 16.3604 0.55075 7.71071 8.58661 9.45616 10.58 11.6159 12.6334 13.7769 14.8721 15.844 1.07635 11.6479 12.652 13.6521 14.5923 15.5294 16.4102 1.54571 9.83485 10.9609 12.0035 13.11 14.2283 15.211 16.519 2.02595 11.0882 12.0284 12.9044 13.93 14.9969 15.8333 16.7216 2.57531 9.70652 10.5603 11.3262 12.2859 13.1643 14.0244 14.8952 15.7421 16.6585 3.10276 13.2864 14.2511 15.2213 16.0674 3.5286 13.0508 14.1802 15.2291 16.266 3.99672 13.4151 14.4028 15.4117 16.5697 4.44679 11.5083 12.3128 13.0809 13.9679 14.7327 15.7598 16.735 4.93213 11.1881 11.9911 12.9035 13.7193 14.4276 15.341 16.2908 5.4494 14.5697 15.4829 16.5714 5.90619 14.475 15.5785 16.6102 6.4422 13.482 14.2626 15.2595 16.2734 6.96159 7.50995 14.845 15.7386 16.677 8.0765 16.1265 8.64082 9.21802 9.84728 10.4383 10.9386 11.4832 12.0768 12.626 13.2203 13.8752 14.527 15.1528 15.6904 16.3463 16.9861 
</DataArray>

</CellData>
<Points>
<DataArray type="Float32" Name="Coordinates" NumberOfComponents="3" format="ascii" >
0 0 -3 -3.78005e-05 -1.20203e-05 -3.09175 -0.11668 0.0882628 -3.84539 -0.287197 0.14251 -4.71836 -0.378027 0.0700356 -5.49775 -0.480286 -0.0147065 -6.28541 -0.584524 -0.0914308 -7.18062 -0.576835 -0.0915306 -8.03987 -0.56203 -0.0827462 -8.72692 -0.555271 -0.00893182 -9.4721 -0.548819 0.0616554 -10.1821 -0.515276 0.0547884 -10.9437 -0.46515 -0.00340255 -11.7446 -0.485928 0.103107 -12.4398 -0.459952 0.220813 -13.2486 -0.583666 0.22011 -14.0229 -0.665874 0.19743 -14.8377 -0.646444 0.213984 -15.6745 -0.637805 0.20629 -16.499 -0.56577 0.135259 -17.3268 -0.527077 0.23402 -18.219 -0.467244 0.143497 -19.0457 -0.417204 0.174517 -19.7415 -0.458171 0.184604 -20.4926 -0.556673 0.311531 -21.2874 -0.635822 0.294752 -22.0249 -0.762913 0.317621 -22.808 -0.772929 0.377187 -23.6698 -0.741268 0.37163 -24.5181 -0.702806 0.428973 -25.32 -0.670947 0.475905 -26.0013 -0.624981 0.519445 -26.823 -0.56811 0.552113 -27.614 -0.562074 0.555401 -27.7152 -3.78005e-05 -1.20203e-05 -3.09175 -0.0233322 0.0434845 -3.11507 -0.468236 0.507846 -3.36466 -1.0023 1.03288 -3.65749 -1.53358 1.57993 -3.91102 -1.9549 2.05744 -4.05294 -2.59919 2.66747 -4.10852 -3.08405 3.22804 -4.01967 -3.5111 4.01646 -3.94745 -3.90345 4.75366 -3.86657 -4.37817 5.3233 -3.76804 -4.86313 5.97365 -3.68034 -5.34624 6.47465 -3.47053 -5.83858 7.17262 -3.25724 -6.28067 7.76477 -3.05248 -6.85266 8.49195 -2.93162 -7.41467 9.04007 -3.12151 -7.93993 9.6455 -3.3085 -8.4415 10.2251 -3.53068 -8.72134 10.6466 -3.58743 -0.0233322 0.0434845 -3.11507 0.359303 0.903848 -2.77838 0.644079 1.86231 -2.7943 0.945283 2.81467 -2.84203 0.954227 2.84204 -2.84428 -0.468236 0.507846 -3.36466 -1.25961 0.278767 -3.93144 -2.028 -0.178244 -4.37946 -2.70532 -0.601305 -4.94969 -1.0023 1.03288 -3.65749 -1.84607 1.22274 -3.15549 -2.73249 0.92771 -2.79881 -3.26657 0.707275 -2.60516 -1.53358 1.57993 -3.91102 -2.51177 1.38247 -3.84651 -3.51126 1.37056 -3.8761 -3.68717 1.36445 -3.88112 -1.9549 2.05744 -4.05294 -2.95187 1.98072 -4.03987 -3.91454 1.86059 -3.79733 -3.91954 1.85998 -3.79607 -2.59919 2.66747 -4.10852 -3.57327 2.51621 -4.27672 -3.82498 2.42681 -4.32732 -3.08405 3.22804 -4.01967 -3.94032 3.1078 -4.31705 -3.5111 4.01646 -3.94745 -3.64415 4.13712 -4.19359 -0.11668 0.0882628 -3.84539 -0.0743464 0.109537 -3.84088 0.555712 0.526092 -3.95964 0.942772 1.14142 -4.12401 1.52288 1.83665 -4.38866 1.90535 2.55767 -4.62614 2.1898 3.32374 -4.63342 2.52521 4.15353 -4.5625 2.82755 4.93562 -4.51427 3.07612 5.62045 -4.47886 3.30536 6.46912 -4.33051 3.4616 7.14299 -4.17791 3.62299 7.94985 -4.14959 3.72917 8.65983 -4.08569 3.84655 9.47465 -4.05119 3.94695 10.1668 -4.02134 4.10363 10.8761 -4.03406 4.25437 11.4596 -4.03675 4.30812 12.2072 -3.94953 4.41423 12.9972 -3.98931 4.42385 13.0531 -3.98966 -0.0743464 0.109537 -3.84088 0.746488 -0.366226 -3.52484 1.72102 -0.559 -3.63936 2.71214 -0.614865 -3.76007 3.14425 -0.632893 -3.82443 0.555712 0.526092 -3.95964 1.27118 -0.00448101 -4.41416 1.85005 -0.370272 -5.14294 2.71577 -0.452289 -5.63669 3.1482 -0.503043 -5.91708 0.942772 1.14142 -4.12401 0.829065 2.10519 -3.88273 0.697599 3.09405 -3.81284 0.632271 4.0918 -3.79815 0.629259 4.15863 -3.79556 1.52288 1.83665 -4.38866 1.55454 2.76936 -4.02942 1.49107 3.76315 -3.938 1.32467 4.41506 -3.80367 1.90535 2.55767 -4.62614 1.56699 3.29315 -5.21315 1.29714 4.05772 -5.79848 1.26815 4.14293 -5.86428 2.1898 3.32374 -4.63342 2.00954 4.04259 -5.3048 1.74631 4.66605 -6.04102 1.75234 4.91901 -6.27554 2.52521 4.15353 -4.5625 3.4307 4.12353 -4.1392 3.94465 4.19064 -3.85732 2.82755 4.93562 -4.51427 3.37161 5.21534 -3.75096 3.07612 5.62045 -4.47886 3.10874 5.91563 -5.0317 -0.287197 0.14251 -4.71836 -0.317589 0.115866 -4.71645 -0.983114 -0.285347 -4.60979 -1.5879 -0.750311 -4.53327 -2.14835 -1.1723 -4.43908 -2.70711 -1.57902 -4.38364 -3.2216 -1.95721 -4.33189 -3.75008 -2.34995 -4.32972 -4.44611 -2.74716 -4.12532 -5.15271 -3.21575 -3.97834 -5.67398 -3.80819 -3.80119 -6.13081 -4.324 -3.64685 -6.62779 -4.90441 -3.46016 -7.14403 -5.39192 -3.39635 -7.71463 -5.98197 -3.31515 -8.17899 -6.63455 -3.17756 -8.68796 -7.18583 -3.17189 -9.24636 -7.67762 -3.0875 -9.68877 -8.27523 -2.95845 -9.89813 -8.54004 -2.88232 -0.317589 0.115866 -4.71645 -0.292086 -0.744844 -4.20799 -0.238788 -1.61115 -3.71133 -0.231516 -2.06632 -3.45286 -0.983114 -0.285347 -4.60979 -1.18771 -1.16397 -5.04126 -0.950783 -1.82218 -5.69104 -1.5879 -0.750311 -4.53327 -1.43961 -1.73925 -4.53631 -1.35891 -2.19325 -4.49846 -2.14835 -1.1723 -4.43908 -1.88365 -1.89336 -5.07938 -1.84683 -1.99099 -5.19302 -2.70711 -1.57902 -4.38364 -3.05276 -1.66275 -4.94471 -3.2216 -1.95721 -4.33189 -3.24176 -2.19257 -4.54126 -0.378027 0.0700356 -5.49775 -0.415163 0.0410196 -5.47723 -1.08523 -0.457049 -5.14155 -1.71639 -0.956453 -5.00526 -2.32125 -1.55118 -4.96634 -2.90036 -2.16006 -4.95099 -3.41762 -2.66154 -4.87826 -3.83752 -3.4153 -4.49684 -4.40083 -3.95872 -4.14512 -4.97991 -4.52868 -3.80884 -5.53279 -4.90796 -3.57862 -6.12107 -5.39938 -3.34635 -6.60406 -6.08761 -3.11696 -6.99249 -6.76757 -2.84144 -7.35311 -7.39892 -2.58531 -7.80125 -7.88269 -2.29308 -8.16674 -8.47934 -2.06505 -8.3362 -8.77155 -1.95491 -0.415163 0.0410196 -5.47723 0.0421582 -0.802246 -5.19481 0.58735 -1.59232 -4.91454 1.17618 -2.17681 -4.89328 -1.08523 -0.457049 -5.14155 -1.30866 -1.37259 -5.476 -1.43716 -2.32079 -5.76653 -1.55792 -2.9489 -5.94529 -1.71639 -0.956453 -5.00526 -1.52973 -1.90348 -5.26658 -1.24955 -2.83665 -5.49176 -1.17074 -3.25518 -5.59732 -2.32125 -1.55118 -4.96634 -3.23438 -1.25647 -4.68466 -4.04153 -0.992174 -4.45221 -2.90036 -2.16006 -4.95099 -3.69421 -1.96015 -4.37668 -4.01581 -1.95335 -4.19782 -3.41762 -2.66154 -4.87826 -3.92308 -2.76028 -4.32848 -3.83752 -3.4153 -4.49684 -3.70816 -3.5796 -4.43584 -0.480286 -0.0147065 -6.28541 -0.506336 -0.0484299 -6.26988 -0.937262 -0.60608 -6.01497 -1.33661 -1.10985 -5.77514 -1.6833 -1.63512 -5.29988 -2.09545 -2.14884 -4.8386 -2.42253 -2.56192 -4.51399 -2.81504 -3.07176 -4.45104 -3.31095 -3.61624 -4.30345 -3.83054 -4.17518 -4.23557 -4.37739 -4.75905 -4.26626 -4.83303 -5.27886 -4.40121 -5.33859 -5.89907 -4.54793 -5.75265 -6.54225 -4.79937 -6.17622 -7.20781 -5.0687 -6.97276 -7.74307 -5.28856 -7.57293 -8.13796 -5.51747 -8.16762 -8.39985 -5.7172 -8.36203 -8.48924 -5.79322 -0.506336 -0.0484299 -6.26988 -0.401227 -0.871167 -6.8285 -0.119614 -1.72105 -7.27391 -0.0955561 -2.05646 -7.46077 -0.937262 -0.60608 -6.01497 -0.724824 -1.09007 -5.16608 -0.603692 -1.58528 -4.30579 -0.569624 -1.74408 -4.04032 -1.33661 -1.10985 -5.77514 -0.788588 -1.89759 -5.49383 -0.186538 -2.53792 -5.37987 -1.6833 -1.63512 -5.29988 -1.6836 -1.14166 -4.43011 -1.66511 -0.909845 -4.1499 -2.09545 -2.14884 -4.8386 -1.57895 -2.57654 -4.19733 -2.42253 -2.56192 -4.51399 -2.25323 -2.69869 -3.88126 -2.81504 -3.07176 -4.45104 -2.85747 -3.10975 -4.3229 -0.584524 -0.0914308 -7.18062 -0.545992 -0.128193 -7.17374 0.0356629 -0.683432 -7.07005 0.576071 -1.13298 -6.943 1.20176 -1.69502 -6.69069 1.82504 -2.05457 -6.37108 2.45678 -2.38057 -6.11317 3.08826 -2.73043 -5.9065 3.70618 -3.03725 -5.71335 4.36483 -3.3602 -5.51393 5.13026 -3.55108 -5.30818 5.72932 -3.84949 -5.22321 6.40977 -4.40126 -5.18987 6.83584 -4.92228 -5.16818 7.27866 -5.63924 -5.23668 7.70326 -6.33948 -5.32145 8.09939 -6.99478 -5.3869 8.54525 -7.76565 -5.51869 8.91436 -8.47941 -5.64791 9.12724 -8.86029 -5.73449 -0.545992 -0.128193 -7.17374 0.318094 -0.100864 -7.67635 0.994318 -0.0660915 -8.41222 1.6765 0.0236324 -9.13788 1.8754 0.018877 -9.266 0.0356629 -0.683432 -7.07005 0.573484 -1.32308 -7.61924 1.08763 -2.07037 -8.04018 1.23894 -2.49408 -8.36689 0.576071 -1.13298 -6.943 1.41674 -0.86685 -6.47136 2.23486 -0.481948 -6.04413 2.81252 -0.362386 -5.76956 1.20176 -1.69502 -6.69069 1.83542 -1.51391 -7.44281 2.26307 -1.36495 -8.15793 1.82504 -2.05457 -6.37108 2.43652 -2.21259 -7.1464 2.89174 -2.20743 -7.5205 2.45678 -2.38057 -6.11317 2.58073 -2.79747 -5.21271 2.6041 -2.91955 -4.92875 3.08826 -2.73043 -5.9065 3.90073 -2.4302 -6.40625 3.95378 -2.41061 -6.43988 3.70618 -3.03725 -5.71335 3.9985 -3.37711 -6.12714 4.36483 -3.3602 -5.51393 4.37821 -3.53118 -5.45682 -0.576835 -0.0915306 -8.03987 -0.583905 -0.0471604 -8.03368 -0.639175 0.694475 -7.79625 -0.688489 1.42826 -7.56619 -0.734476 2.06483 -7.3968 -0.810227 2.84178 -7.21483 -0.883454 3.55229 -7.05243 -0.884295 4.31112 -6.69123 -1.00103 4.89832 -6.22299 -0.875342 5.46706 -5.66393 -0.730883 6.01683 -5.13929 -0.59092 6.64764 -4.58926 -0.402129 7.17337 -4.13795 -0.216823 7.7572 -3.5412 -0.0850006 8.27894 -2.86469 0.186837 8.52184 -2.30074 0.399303 8.95114 -1.62003 0.503252 9.13149 -1.33241 -0.583905 -0.0471604 -8.03368 -1.06481 0.391668 -7.27463 -1.43463 0.716264 -6.74721 -0.639175 0.694475 -7.79625 -0.109888 1.35904 -8.32371 0.0151778 1.46353 -8.37032 -0.688489 1.42826 -7.56619 -1.38438 1.74454 -7.08552 -0.734476 2.06483 -7.3968 -1.16505 2.1609 -7.00763 -0.56203 -0.0827462 -8.72692 -0.549919 -0.1344 -8.73089 -0.26494 -0.926619 -8.66714 0.0792194 -1.60984 -8.58685 0.363771 -2.23447 -8.29318 0.641333 -2.86489 -8.01296 1.00282 -3.58684 -7.7541 1.36222 -4.39854 -7.51345 1.63574 -5.07964 -7.19749 2.01555 -5.7395 -6.82333 2.27587 -6.46274 -6.56258 2.60296 -7.17557 -6.31769 2.69585 -8.01887 -6.07391 2.84545 -8.70202 -5.95202 3.18887 -9.41584 -5.63133 3.21192 -9.46406 -5.60997 -0.549919 -0.1344 -8.73089 -0.327216 -0.416639 -9.66403 -0.151114 -0.687208 -10.3546 -0.26494 -0.926619 -8.66714 -0.266826 -1.34583 -9.57503 -0.293145 -1.42927 -9.7966 0.0792194 -1.60984 -8.58685 0.587899 -1.92882 -9.10411 0.363771 -2.23447 -8.29318 0.145269 -2.45649 -8.19667 -0.555271 -0.00893182 -9.4721 -0.5419 -0.0544946 -9.47204 -0.386061 -0.805028 -9.3936 -0.396201 -1.56241 -9.23983 -0.302269 -2.41908 -9.12321 -0.0789351 -3.15944 -8.92847 0.18343 -3.77993 -8.76339 0.498956 -4.60333 -8.43242 0.726135 -5.31006 -8.17439 0.921397 -5.98641 -7.9238 1.08616 -6.76447 -7.55041 1.13286 -7.41296 -7.26907 1.23369 -7.96808 -7.037 1.37847 -8.68454 -6.82032 1.54718 -9.59563 -6.58486 1.62665 -10.0466 -6.44048 -0.5419 -0.0544946 -9.47204 -0.924793 -0.41992 -8.6236 -1.06075 -0.580327 -8.31168 -0.386061 -0.805028 -9.3936 -1.34243 -1.08043 -9.4911 -1.45376 -1.10947 -9.50179 -0.396201 -1.56241 -9.23983 0.206921 -1.86622 -8.69655 -0.302269 -2.41908 -9.12321 -0.262806 -2.51715 -9.26668 -0.548819 0.0616554 -10.1821 -0.498788 0.0611036 -10.1828 0.233682 0.0790881 -10.2699 0.919045 0.131198 -10.1851 1.6652 0.344195 -10.063 2.30026 0.514226 -9.96191 3.13763 0.73925 -9.8372 3.94828 0.693539 -9.78088 4.8426 0.636999 -9.72269 5.60005 0.574816 -9.49149 6.30258 0.584943 -9.24662 6.92841 0.562109 -9.15878 7.77429 0.592575 -9.00435 8.66764 0.626795 -8.79643 9.47457 0.481226 -8.72475 10.2513 0.360355 -8.64196 11.0046 0.232924 -8.53951 -0.498788 0.0611036 -10.1828 0.0713525 -0.543874 -9.62699 0.656071 -1.13613 -9.07261 0.900042 -1.37885 -8.83021 0.233682 0.0790881 -10.2699 0.808332 0.733001 -9.77783 0.839552 1.33957 -9.03117 0.919045 0.131198 -10.1851 1.36545 -0.213321 -9.35925 1.60797 -0.552877 -8.82257 1.6652 0.344195 -10.063 1.75134 0.692895 -9.12974 1.7541 0.834185 -8.68495 2.30026 0.514226 -9.96191 2.71968 -0.200702 -9.40247 2.77253 -0.281071 -9.33396 3.13763 0.73925 -9.8372 3.15487 1.09059 -9.41229 3.94828 0.693539 -9.78088 4.02661 0.797809 -9.84131 -0.515276 0.0547884 -10.9437 -0.536973 0.0151759 -10.9432 -0.84114 -0.682645 -10.9986 -1.12102 -1.48561 -10.9971 -1.4379 -2.15969 -11.0218 -1.70926 -2.73441 -11.0393 -1.94761 -3.5016 -11.0858 -2.20026 -4.27929 -11.1305 -2.40435 -4.87166 -11.1066 -2.66008 -5.61367 -11.0782 -2.99963 -6.18611 -11.0776 -3.54164 -6.65075 -11.1631 -4.11959 -7.21589 -11.1033 -4.63123 -7.71375 -11.0294 -5.13408 -8.18798 -10.997 -5.63899 -8.59947 -10.994 -6.15979 -9.21284 -11.0882 -6.52372 -9.60204 -11.0805 -0.536973 0.0151759 -10.9432 -0.992962 0.0695503 -11.8315 -1.34905 0.464868 -12.6782 -1.53092 0.608052 -12.9319 -0.84114 -0.682645 -10.9986 -1.75631 -1.05744 -10.8503 -2.48991 -1.66418 -10.5442 -2.5248 -1.69409 -10.5296 -1.12102 -1.48561 -10.9971 -0.890235 -2.1913 -10.3272 -0.788658 -2.90144 -9.84225 -1.4379 -2.15969 -11.0218 -2.3252 -2.56364 -10.7993 -2.73779 -2.6994 -10.7346 -1.70926 -2.73441 -11.0393 -2.70881 -2.70871 -11.0238 -2.94851 -2.70377 -11.0235 -1.94761 -3.5016 -11.0858 -2.62869 -3.69002 -11.4588 -2.20026 -4.27929 -11.1305 -2.05927 -4.4469 -10.9722 -0.46515 -0.00340255 -11.7446 -0.503 0.00412476 -11.7466 -1.14954 0.190502 -11.888 -1.89616 0.438241 -12.0599 -2.63429 0.664322 -12.2305 -3.4701 0.802274 -12.1688 -4.1851 0.977545 -12.1319 -4.93554 1.21953 -12.1861 -5.69727 1.38933 -12.1517 -6.6466 1.60594 -12.0812 -7.36536 1.78685 -12.0698 -8.19638 2.09134 -11.9435 -8.83634 2.31162 -11.8802 -9.33158 2.51466 -11.7982 -0.503 0.00412476 -11.7466 -0.851045 0.480688 -10.9393 -0.899261 0.537748 -10.7977 -1.14954 0.190502 -11.888 -1.51637 0.445517 -11.2238 -1.89616 0.438241 -12.0599 -1.9733 0.52658 -12.2589 -0.485928 0.103107 -12.4398 -0.447474 0.0731158 -12.4436 0.291622 -0.465433 -12.487 0.980858 -0.925297 -12.6142 1.67297 -1.27669 -12.7712 2.42421 -1.6005 -13.1151 3.26425 -1.94235 -13.4438 3.83307 -2.18249 -13.6886 4.48714 -2.45677 -14.0476 5.10464 -2.82267 -14.1521 5.63901 -3.16657 -14.3528 6.45394 -3.6286 -14.568 7.09159 -3.89036 -14.6733 7.72442 -4.23286 -14.7786 7.90561 -4.32959 -14.816 -0.447474 0.0731158 -12.4436 0.296492 -0.265655 -11.8677 0.509797 -0.362618 -11.703 0.291622 -0.465433 -12.487 0.781321 -0.234019 -12.5431 0.980858 -0.925297 -12.6142 0.969389 -1.00127 -12.8167 -0.459952 0.220813 -13.2486 -0.432506 0.184658 -13.2444 -0.0431408 -0.370193 -13.1935 0.479986 -1.03761 -13.2781 0.969218 -1.72663 -13.3597 1.41791 -2.42549 -13.4903 1.69352 -2.99685 -13.6934 2.19906 -3.61488 -13.9728 2.61312 -4.20446 -14.3004 3.00514 -4.83075 -14.5954 3.50757 -5.47574 -14.8144 3.92368 -5.98663 -14.8436 4.51779 -6.47222 -14.8287 5.12603 -6.97244 -14.8045 5.27062 -7.11619 -14.8065 -0.432506 0.184658 -13.2444 0.388262 0.121361 -13.8122 0.955953 0.0612607 -14.2987 -0.0431408 -0.370193 -13.1935 0.830868 -0.344051 -13.6787 1.04248 -0.328288 -13.7981 0.479986 -1.03761 -13.2781 1.4391 -1.15279 -13.5366 1.45195 -1.15437 -13.5402 0.969218 -1.72663 -13.3597 1.08976 -1.89974 -13.0428 -0.583666 0.22011 -14.0229 -0.536045 0.240565 -14.0299 0.100894 0.628274 -14.0532 0.700712 0.985501 -13.9725 1.30717 1.35887 -13.9038 1.83984 1.69059 -13.8454 2.43177 2.06154 -13.7834 2.9762 2.504 -13.5251 3.48593 2.92842 -13.2872 4.09443 3.30106 -12.9271 4.78446 3.6865 -12.6363 5.32998 3.9914 -12.3985 5.96435 4.35652 -12.102 6.39707 4.60945 -11.9024 -0.665874 0.19743 -14.8377 -0.682513 0.241964 -14.8328 -0.975154 1.02505 -14.7469 -1.26203 1.84092 -14.754 -1.58842 2.5939 -14.6173 -1.79738 3.33876 -14.4684 -1.98651 3.95288 -14.2192 -2.17015 4.5302 -13.9887 -2.28579 5.29077 -13.5673 -2.44785 5.79492 -13.1004 -2.69934 6.31872 -12.4363 -2.941 6.81419 -11.7549 -3.22256 7.29426 -11.2147 -3.47542 7.7204 -10.6738 -0.682513 0.241964 -14.8328 -0.145879 0.810015 -15.4568 -0.0736173 0.882966 -15.5372 -0.975154 1.02505 -14.7469 -0.869134 1.34295 -15.1877 -1.26203 1.84092 -14.754 -1.23943 1.92946 -14.8813 -0.646444 0.213984 -15.6745 -0.633892 0.256841 -15.6782 -0.270357 0.996262 -15.6333 0.0168894 1.58291 -15.605 0.340718 2.28638 -15.5556 0.712601 3.09493 -15.4995 1.13009 3.79099 -15.4613 1.50522 4.43578 -15.414 1.81803 5.00837 -15.6686 2.14177 5.63493 -15.958 2.66208 6.20202 -16.2604 3.16455 6.7411 -16.5727 3.34687 7.06389 -16.7522 -0.633892 0.256841 -15.6782 -0.356224 0.332156 -15.9435 -0.637805 0.20629 -16.499 -0.629606 0.24686 -16.5062 -0.407309 0.932215 -16.5706 -0.17799 1.66934 -16.7929 -0.00341197 2.3749 -16.9432 0.18047 3.18871 -17.1038 0.216476 3.92053 -17.3204 0.307293 4.82284 -17.31 0.379056 5.51244 -17.3031 0.429689 6.27214 -17.3715 0.484203 6.91185 -17.4258 0.504331 7.34985 -17.4616 -0.56577 0.135259 -17.3268 -0.584826 0.185171 -17.3136 -0.865254 0.879494 -17.1634 -1.16139 1.65442 -17.027 -1.38897 2.32165 -16.8979 -1.61235 3.07965 -16.757 -1.78695 3.6374 -16.4921 -2.03043 4.33851 -16.0968 -2.22515 4.91766 -15.7822 -2.33164 5.51391 -15.5206 -2.30053 6.16947 -15.3374 -2.3008 6.90962 -15.2395 -0.527077 0.23402 -18.219 -0.491813 0.193647 -18.2299 0.100825 -0.252258 -18.4383 0.557786 -0.663433 -18.6703 1.01883 -1.03295 -18.9883 1.60802 -1.38955 -19.3923 2.26142 -1.69597 -19.8505 2.73247 -1.97936 -20.1655 3.3682 -2.33034 -20.5462 3.96567 -2.71299 -20.9506 4.60306 -3.19137 -21.3246 4.7602 -3.32815 -21.4727 -0.467244 0.143497 -19.0457 -0.513224 0.161322 -19.0584 -1.17298 0.522966 -19.1886 -1.77245 0.974138 -19.2768 -2.30176 1.39321 -19.4596 -2.89672 1.85762 -19.6426 -3.44031 2.27285 -19.8688 -3.91154 2.7293 -20.1933 -4.42158 3.22222 -20.535 -4.77688 3.67053 -20.8006 -5.06767 4.02073 -21.0007 -0.417204 0.174517 -19.7415 -0.378865 0.205142 -19.7355 0.307929 0.840401 -19.668 0.86849 1.34228 -19.6118 1.51375 1.9213 -19.5425 2.05297 2.33994 -19.223 2.53011 2.75526 -18.9008 2.94182 3.08227 -18.4759 3.40689 3.34365 -17.9868 3.49747 3.39661 -17.8935 -0.458171 0.184604 -20.4926 -0.489562 0.221311 -20.4855 -1.03927 0.770313 -20.2198 -1.59628 1.38119 -19.8632 -2.10301 1.88814 -19.6143 -2.72509 2.25007 -19.406 -3.43028 2.69423 -19.1619 -4.13449 3.10047 -18.8768 -4.3736 3.23841 -18.78 -0.556673 0.311531 -21.2874 -0.545085 0.362564 -21.2907 -0.441499 1.06519 -21.2987 -0.303686 1.89034 -21.26 -0.24828 2.58905 -21.1804 -0.168236 3.38881 -21.1019 -0.174851 4.19295 -21.031 -0.166949 4.61585 -21.0028 -0.635822 0.294752 -22.0249 -0.645365 0.243199 -22.0246 -0.748077 -0.507226 -22.0545 -0.873102 -1.26338 -21.9663 -1.05075 -2.06258 -21.9595 -1.14305 -2.83215 -21.8565 -1.29004 -3.53854 -21.8291 -1.57483 -4.21841 -21.9901 -0.762913 0.317621 -22.808 -0.723524 0.346059 -22.8138 -0.0171323 0.838897 -22.8171 0.541532 1.36956 -22.8565 1.12008 1.90905 -22.9181 1.68509 2.43391 -22.9815 2.14229 2.91917 -23.2212 -0.772929 0.377187 -23.6698 -0.748282 0.427541 -23.6753 -0.34167 1.14527 -23.6753 -0.0552187 1.7625 -23.7727 0.0909439 2.47827 -23.8889 0.14359 2.69372 -23.9225 -0.741268 0.37163 -24.5181 -0.783743 0.4 -24.5227 -1.56896 0.727483 -24.3827 -2.31853 1.04314 -24.517 -2.64681 1.19191 -24.5803 -0.702806 0.428973 -25.32 -0.719092 0.379029 -25.3365 -0.839574 -0.259465 -25.624 -0.976598 -0.965367 -25.9424 -1.03277 -1.27172 -26.1349 -0.670947 0.475905 -26.0013 -0.711593 0.493436 -25.9939 -1.47569 0.734828 -25.7962 -1.91919 0.830725 -25.7219 -0.624981 0.519445 -26.823 -0.664067 0.546775 -26.8419 -1.26583 0.867119 -27.0366 -0.56811 0.552113 -27.614 -0.554008 0.550125 -27.612 
</DataArray>
</Points>
<Lines>
<DataArray type="Int32" Name="connectivity" NumberOfComponents="1" format="ascii" >
0 1 2 3 4 5 6 7 8 9 10 11 12 13 14 15 16 17 18 19 20 21 22 23 24 25 26 27 28 29 30 31 32 33 34 35 36 37 38 39 40 41 42 43 44 45 46 47 48 49 50 51 52 53 54 55 56 57 58 59 60 61 62 63 64 65 66 67 68 69 70 71 72 73 74 75 76 77 78 79 80 81 82 83 84 85 86 87 88 89 90 91 92 93 94 95 96 97 98 99 100 101 102 103 104 105 106 107 108 109 110 111 112 113 114 115 116 117 118 119 120 121 122 123 124 125 126 127 128 129 130 131 132 133 134 135 136 137 138 139 140 141 142 143 144 145 146 147 148 149 150 151 152 153 154 155 156 157 158 159 160 161 162 163 164 165 166 167 168 169 170 171 172 173 174 175 176 177 178 179 180 181 182 183 184 185 186 187 188 189 190 191 192 193 194 195 196 197 198 199 200 201 202 203 204 205 206 207 208 209 210 211 212 213 214 215 216 217 218 219 220 221 222 223 224 225 226 227 228 229 230 231 232 233 234 235 236 237 238 239 240 241 242 243 244 245 246 247 248 249 250 251 252 253 254 255 256 257 258 259 260 261 262 263 264 265 266 267 268 269 270 271 272 273 274 275 276 277 278 279 280 281 282 283 284 285 286 287 288 289 290 291 292 293 294 295 296 297 298 299 300 301 302 303 304 305 306 307 308 309 310 311 312 313 314 315 316 317 318 319 320 321 322 323 324 325 326 327 328 329 330 331 332 333 334 335 336 337 338 339 340 341 342 343 344 345 346 347 348 349 350 351 352 353 354 355 356 357 358 359 360 361 362 363 364 365 366 367 368 369 370 371 372 373 374 375 376 377 378 379 380 381 382 383 384 385 386 387 388 389 390 391 392 393 394 395 396 397 398 399 400 401 402 403 404 405 406 407 408 409 410 411 412 413 414 415 416 417 418 419 420 421 422 423 424 425 426 427 428 429 430 431 432 433 434 435 436 437 438 439 440 441 442 443 444 445 446 447 448 449 450 451 452 453 454 455 456 457 458 459 460 461 462 463 464 465 466 467 468 469 470 471 472 473 474 475 476 477 478 479 480 481 482 483 484 485 486 487 488 489 490 491 492 493 494 495 496 497 498 499 500 501 502 503 504 505 506 507 508 509 510 511 512 513 514 515 516 517 518 519 520 521 522 523 524 525 526 527 528 529 530 531 532 533 534 535 536 537 538 539 540 541 542 543 544 545 546 547 548 549 550 551 552 553 554 555 556 557 558 559 560 561 562 563 564 565 566 567 568 569 570 571 572 573 574 575 576 577 578 579 580 581 582 583 584 585 586 587 588 589 590 591 592 593 594 595 596 597 598 599 600 601 602 603 604 605 606 607 608 609 610 611 612 613 614 615 616 617 618 619 620 621 622 623 624 625 626 627 628 629 630 631 632 633 634 635 636 637 638 639 640 641 642 643 644 645 646 647 648 649 650 651 652 653 654 655 656 657 658 659 660 661 662 663 664 665 666 667 668 669 670 671 672 673 674 675 676 677 678 679 680 681 682 683 684 685 686 687 688 689 690 
</DataArray>
<DataArray type="Int32" Name="offsets" NumberOfComponents="1" format="ascii" >
34 54 59 63 67 71 75 78 80 82 103 108 113 118 122 126 130 133 135 137 157 161 164 167 170 172 174 192 196 200 204 207 210 212 214 233 237 241 244 247 249 251 253 273 278 282 286 289 292 295 298 300 302 320 323 326 328 330 346 349 352 354 356 372 375 378 380 382 399 403 406 409 412 415 417 419 437 441 445 448 451 454 456 458 472 475 477 479 494 497 499 501 516 519 522 525 527 541 555 558 560 562 575 577 589 601 613 624 634 643 651 659 666 672 677 682 686 689 691 
</DataArray>

</Lines>
</Piece>
</PolyData>
</VTKFile>
