<?xml version="1.0"?><VTKFile type="PolyData" version="0.1" byte_order="LittleEndian">
<PolyData>
<Piece NumberOfLines="112" NumberOfPoints="1319">
<PointData Scalars=" PointData">
<DataArray type="Float32" Name="time" NumberOfComponents="1" format="ascii" >
0 0.209991 0.726545 1.23527 1.74848 2.26995 2.78813 3.30489 3.8504 4.39089 4.93812 5.46778 6.00021 6.5586 7.1115 7.68718 8.24511 8.82038 9.41742 10.0098 10.6107 11.2039 11.8079 12.4072 13.0314 13.6515 14.2808 14.9231 15.5957 16.2532 16.8939 17.5257 18.1981 18.8837 19.5798 20.2905 20.9938 21.6999 22.4192 23.1662 23.9245 24.6773 25.4181 26.1889 26.9959 27.802 28.5912 29.384 30.2383 31.0744 31.9047 32.7642 33.6079 34.4897 35.3788 36.2672 37.1835 38.0959 39.0466 39.9844 40.9619 41.9648 42.9694 43.9553 44.9889 46.0303 47.0976 48.1405 49.1922 50.3531 51.5618 52.7392 53.8991 55.1102 56.3438 57.6084 58.9298 60.2868 61.6727 62.9948 64.3938 65.8312 67.3399 68.8311 70.4186 72.0137 73.67 75.3288 77.0456 78.8022 80.6514 82.494 84.4878 86.4514 88.5515 90.5996 92.8379 95.0709 97.4819 99.8982 102.474 105.193 108.109 110.995 114.173 117.426 120.868 124.514 128.385 132.616 137.338 142.054 147.357 153.178 159 1.59705 3.2268 5.04871 7.11423 9.49868 12.3189 15.7706 20.2205 26.4924 37.2143 94 2.12541 3.46599 4.96463 6.66365 8.62502 10.9448 13.7841 17.4444 22.6035 31.4229 66 2.64586 3.67867 4.83324 6.14219 7.65326 9.44047 11.6279 14.4479 18.4225 25.2171 66 3.17101 4.46542 5.91246 7.55298 9.44681 11.6867 14.4282 17.9626 22.9439 31.4597 66 3.70471 4.72737 5.87061 7.16671 8.66295 10.4326 12.5985 15.3909 19.3264 26.0544 66 4.23515 5.32323 6.5396 7.9186 9.51054 11.3934 13.6979 16.6688 20.8561 28.0144 66 4.76424 5.98769 7.35539 8.90597 10.696 12.8131 15.4043 18.7448 23.4531 31.502 66 5.32287 6.6323 8.09612 9.75565 11.6714 13.9374 16.7106 20.2859 25.3251 33.9395 66 5.8765 7.15946 8.59368 10.2197 12.0967 14.3168 17.034 20.5371 25.4744 33.9147 66 6.43714 7.59208 8.8832 10.3469 12.0367 14.0353 16.4813 19.6349 24.0795 31.6776 66 6.9799 8.46714 10.1297 12.0146 14.1906 16.7642 19.914 23.9749 29.6983 39.4826 94 7.52561 8.66728 9.94356 11.3905 13.0608 15.0365 17.4544 20.5717 24.9652 32.4761 66 8.09806 9.47494 11.0142 12.7592 14.7736 17.1563 20.0723 23.8318 29.1305 38.1887 94 8.66501 9.7868 11.0409 12.4626 14.1039 16.0451 18.4209 21.4839 25.801 33.1811 66 9.25546 10.653 12.2152 13.9864 16.031 18.4493 21.409 25.2248 30.6029 39.7967 94 9.82784 10.8874 12.0718 13.4147 14.9648 16.7983 19.0423 21.9353 26.0128 32.9833 66 10.4181 11.5152 12.7417 14.1321 15.7372 17.6356 19.9592 22.9547 27.1767 34.3942 66 11.0309 12.1833 13.4715 14.932 16.618 18.6121 21.0526 24.1991 28.6338 36.2149 66 11.6391 12.8657 14.237 15.7916 17.5863 19.7089 22.3068 25.6561 30.3766 38.4464 66 12.2562 13.4054 14.69 16.1465 17.8279 19.8165 22.2504 25.3882 29.8107 37.3711 66 12.8655 14.0211 15.313 16.7776 18.4684 20.4682 22.9157 26.071 30.5183 38.1209 66 13.4861 14.8539 16.3829 18.1164 20.1176 22.4844 25.3813 29.1159 34.3796 43.378 94 14.102 15.164 16.3512 17.6972 19.251 21.0887 23.338 26.2377 30.3247 37.3114 66 14.7438 16.0294 17.4665 19.0959 20.9768 23.2014 25.9242 29.4344 34.3819 42.8395 94 15.3814 16.5025 17.7557 19.1764 20.8166 22.7565 25.1308 28.1917 32.5059 39.881 66 16.0287 17.2628 18.6423 20.2064 22.0119 24.1474 26.761 30.1305 34.8797 42.9983 94 16.6896 17.9421 19.3421 20.9294 22.7618 24.929 27.5815 31.0012 35.8209 44.0603 94 17.3819 18.4585 19.6621 21.0266 22.6018 24.4648 26.745 29.6847 33.828 40.911 66 18.0588 19.1346 20.3372 21.7007 23.2747 25.1363 27.4147 30.3522 34.4923 41.5698 66 18.7186 19.7899 20.9875 22.3453 23.9127 25.7665 28.0354 30.9606 35.0833 42.1312 66 19.3696 20.5239 21.8144 23.2773 24.9662 26.9638 29.4086 32.5604 37.0028 44.597 94 20.0625 21.1646 22.3966 23.7934 25.4059 27.313 29.6472 32.6564 36.8977 44.1482 94 20.7693 21.6978 22.7358 23.9126 25.2711 26.8779 28.8445 31.3798 34.9531 41 66 21.4871 22.6679 23.9879 25.4845 27.212 29.2553 31.7561 34.9802 39.5243 47.2925 94 22.2203 23.4416 24.8068 26.3546 28.1414 30.2547 32.8412 36.1758 40.8757 48.9101 94 22.9461 24.2077 25.618 27.2169 29.0627 31.2458 33.9177 37.3624 42.2174 50.5172 94 23.675 24.8737 26.2138 27.733 29.4868 31.5612 34.0999 37.373 41.9861 49.8722 94 24.4179 25.6376 27.0011 28.5469 30.3313 32.4419 35.0251 38.3553 43.0491 51.073 94 25.1897 26.2616 27.4599 28.8184 30.3867 32.2416 34.5118 37.4387 41.5638 48.6157 94 25.9734 27.2946 28.7714 30.4458 32.3787 34.6648 37.4628 41.0701 46.1542 54.8455 94 26.7519 27.9076 29.1995 30.6641 32.3549 34.3547 36.8023 39.9578 44.4051 52.008 94 27.5182 28.5462 29.6955 30.9984 32.5025 34.2815 36.4588 39.2658 43.2221 49.9854 94 28.3159 29.6964 31.2396 32.9892 35.0089 37.3977 40.3213 44.0906 49.4031 58.4848 94 29.1514 30.4142 31.8258 33.4262 35.2738 37.4589 40.1333 43.5812 48.4408 56.7483 94 29.9864 30.9752 32.0806 33.3337 34.7803 36.4914 38.5855 41.2853 45.0904 51.5953 94 30.8043 32.2196 33.8017 35.5954 37.6661 40.1152 43.1127 46.977 52.4236 61.7345 94 31.6263 32.8724 34.2655 35.8448 37.668 39.8244 42.4636 45.8662 50.6618 58.8599 94 32.5124 33.8471 35.3392 37.0308 38.9836 41.2932 44.12 47.7643 52.9008 61.6815 94 33.3802 34.625 36.0165 37.5941 39.4154 41.5694 44.2058 47.6046 52.395 60.5843 94 34.2424 35.6607 37.2463 39.0438 41.119 43.5734 46.5773 50.45 55.9083 65.2393 125 35.1353 36.1018 37.1822 38.4071 39.8211 41.4935 43.5404 46.1793 49.8986 56.2568 94 36.0123 37.2735 38.6833 40.2816 42.1267 44.309 46.9799 50.4233 55.2765 63.5732 94 36.9295 38.2705 39.7697 41.4692 43.4313 45.7518 48.592 52.2536 57.4143 66.2366 125 37.8548 39.0066 40.2941 41.7538 43.439 45.432 47.8713 51.0162 55.4486 63.0258 94 38.7799 39.9533 41.265 42.752 44.4687 46.4991 48.9842 52.1879 56.7034 64.4226 94 39.7346 40.8813 42.1631 43.6164 45.294 47.2783 49.7068 52.8377 57.2504 64.794 94 40.6859 41.7918 43.0281 44.4297 46.0478 47.9615 50.3037 53.3233 57.5792 64.8548 94 41.6777 42.9855 44.4474 46.1048 48.0182 50.2812 53.0509 56.6216 61.6543 70.2578 125 42.6568 43.6821 44.8282 46.1276 47.6277 49.4018 51.5732 54.3727 58.3182 65.0633 94 43.678 44.8138 46.0835 47.523 49.1847 51.1502 53.5557 56.657 61.0279 68.5002 94 44.7264 45.8294 47.0624 48.4603 50.074 51.9827 54.3187 57.3303 61.5749 68.8312 94 45.7775 46.8946 48.1435 49.5594 51.1939 53.1271 55.4931 58.5434 62.8427 70.1922 125 46.8097 47.9543 49.2339 50.6845 52.3592 54.3398 56.764 59.8892 64.2941 71.8241 125 47.8928 49.0406 50.3237 51.7784 53.4578 55.444 57.875 61.009 65.4263 72.9775 125 48.9848 50.3729 51.9247 53.684 55.715 58.1171 61.0571 64.8473 70.1894 79.3217 125 50.105 51.2132 52.452 53.8565 55.4778 57.3954 59.7424 62.7682 67.0328 74.3231 125 51.2005 52.7734 54.5318 56.5253 58.8266 61.5484 64.8797 69.1744 75.2276 85.5754 125 52.3062 53.5388 54.9166 56.4787 58.282 60.4148 63.0252 66.3906 71.1338 79.2424 125 53.528 54.6429 55.8893 57.3023 58.9336 60.8629 63.2242 66.2685 70.5592 77.8941 125 54.8012 56.2593 57.8894 59.7374 61.8708 64.394 67.4822 71.4636 77.0751 86.6679 125 56.0428 57.1074 58.2974 59.6466 61.2041 63.0462 65.3008 68.2075 72.3042 79.3076 125 57.2672 58.4097 59.6869 61.1348 62.8064 64.7834 67.203 70.3226 74.7192 82.2354 125 58.5471 59.732 61.0567 62.5585 64.2922 66.3427 68.8524 72.0878 76.648 84.4436 125 59.8521 61.0195 62.3244 63.8039 65.5118 67.5318 70.0041 73.1914 77.6837 85.3634 125 61.1917 62.496 63.9542 65.6073 67.5157 69.7728 72.5354 76.0969 81.1165 89.6977 125 62.5931 63.8372 65.228 66.8048 68.625 70.778 73.4129 76.8099 81.5978 89.7827 125 64.0341 65.2388 66.5855 68.1123 69.8749 71.9596 74.511 77.8003 82.4364 90.3618 125 65.508 66.5556 67.7268 69.0546 70.5874 72.4003 74.6191 77.4797 81.5114 88.4037 125 66.9159 68.2787 69.8021 71.5292 73.523 75.8811 78.7672 82.4881 87.7324 96.6976 159 68.408 69.7145 71.1751 72.831 74.7426 77.0035 79.7706 83.3381 88.3661 96.9616 159 69.9434 71.1706 72.5425 74.0978 75.8933 78.0169 80.616 83.9669 88.6896 96.7632 125 71.5575 72.8625 74.3214 75.9754 77.8847 80.143 82.9069 86.4702 91.4924 100.078 159 73.1557 74.4991 76.0009 77.7034 79.6688 81.9935 84.8386 88.5066 93.6763 102.514 159 74.8603 76.2121 77.7233 79.4365 81.4143 83.7536 86.6166 90.3077 95.5099 104.403 159 76.5762 77.8602 79.2955 80.9227 82.8012 85.023 87.7422 91.2479 96.189 104.636 159 78.3617 79.4904 80.7521 82.1826 83.8339 85.787 88.1774 91.2592 95.6027 103.028 159 80.1536 81.2864 82.5528 83.9884 85.6458 87.606 90.0052 93.0982 97.4576 104.91 159 82.0124 83.2178 84.5653 86.093 87.8565 89.9424 92.4953 95.7866 100.425 108.355 159 83.9187 85.1056 86.4324 87.9366 89.6731 91.7269 94.2406 97.4813 102.049 109.857 159 85.9307 87.0398 88.2797 89.6853 91.308 93.2273 95.5763 98.6047 102.873 110.17 159 87.9407 89.2024 90.6127 92.2116 94.0575 96.2406 98.9126 102.357 107.212 115.512 159 90.1221 91.3097 92.6374 94.1426 95.8802 97.9354 100.451 103.694 108.264 116.077 159 92.2769 93.4187 94.6951 96.1422 97.8127 99.7884 102.207 105.324 109.718 117.23 159 94.5893 95.7214 96.987 98.4219 100.078 102.037 104.435 107.526 111.883 119.332 159 96.8521 98.1181 99.5334 101.138 102.99 105.181 107.863 111.319 116.192 124.521 159 99.3343 100.597 102.01 103.611 105.459 107.645 110.32 113.769 118.63 126.941 159 101.821 102.96 104.233 105.676 107.343 109.314 111.726 114.836 119.219 126.712 159 104.517 105.702 107.027 108.528 110.262 112.313 114.823 118.058 122.618 130.414 159 107.232 108.27 109.43 110.746 112.265 114.061 116.259 119.094 123.088 129.917 159 110.141 111.29 112.573 114.029 115.709 117.697 120.129 123.265 127.684 135.24 159 113.23 114.291 115.478 116.824 118.378 120.215 122.464 125.363 129.449 136.435 159 116.563 117.716 119.005 120.466 122.153 124.149 126.591 129.739 134.176 141.762 159 119.885 121.102 122.463 124.006 125.788 127.895 130.474 133.798 138.484 146.494 159 123.57 124.752 126.073 127.57 129.299 131.343 133.846 137.072 141.619 149.391 159 127.377 128.661 130.097 131.725 133.604 135.827 138.547 142.055 146.998 155.448 159 131.442 132.562 133.814 135.233 136.872 138.809 141.181 144.239 148.548 155.916 159 135.795 136.963 138.269 139.749 141.458 143.479 145.953 149.142 153.637 159 140.474 141.462 142.568 143.821 145.267 146.978 149.072 151.772 155.576 159 145.662 146.838 148.154 149.645 151.367 153.404 155.896 159 151.552 152.57 153.708 154.998 156.487 158.249 159 157.552 158.71 159 
</DataArray>

</PointData>
<CellData Scalars=" CellData">
<DataArray type="Float32" Name="radius" NumberOfComponents="1" format="ascii" >
0.0387772 0.0260817 0.024496 0.0297562 0.0281853 0.0259329 0.0301368 0.025419 0.0276653 0.0264209 0.0259976 0.0299241 0.0234377 0.0307103 0.0208731 0.0287482 0.0211448 0.0272078 0.0253985 0.0284328 0.0270475 0.0253734 0.0285085 0.0264185 0.0246053 0.0281368 0.0327854 0.029431 0.0289053 0.0298881 0.0285243 0.027454 0.028201 0.0250166 0.0265732 0.0309151 0.0300955 0.0302729 0.0265034 0.0264037 0.0269355 0.0311644 0.0300413 0.0282299 0.0242091 0.0296147 0.0284007 0.019237 0.0251803 0.0281721 0.026804 0.0277151 0.0288272 0.0247283 0.0247732 0.0284301 0.0226892 0.0267742 0.0274002 0.0303096 0.0290373 0.0273013 0.0240038 0.031487 0.0261215 0.0323744 0.0275293 0.0302335 0.027705 0.0217466 0.0290312 0.0278377 0.02624 0.0286599 0.0303588 0.0272068 0.0352962 0.0278987 0.0258223 0.0271606 0.0331091 0.0279654 0.0294586 0.0288524 0.0287282 0.0295857 0.0210281 0.0282263 0.0231164 0.0243385 0.0284719 0.0257301 0.0223319 0.0263181 0.0258466 0.0268095 0.0266351 0.027984 0.0324786 0.0269504 0.0274006 0.0247815 0.0288843 0.0230728 0.0263188 0.0250091 0.0231983 0.0259591 0.0262791 0.0254554 0.0250662 0.0199484 
</DataArray>
<DataArray type="Float32" Name="subType" NumberOfComponents="1" format="ascii" >
1 2 2 2 2 2 2 2 2 2 2 2 2 2 2 2 2 2 2 2 2 2 2 2 2 2 2 2 2 2 2 2 2 2 2 2 2 2 2 2 2 2 2 2 2 2 2 2 2 2 2 2 2 2 2 2 2 2 2 2 2 2 2 2 2 2 2 2 2 2 2 2 2 2 2 2 2 2 2 2 2 2 2 2 2 2 2 2 2 2 2 2 2 2 2 2 2 2 2 2 2 2 2 2 2 2 2 2 2 2 2 2 
</DataArray>
<DataArray type="Float32" Name="creationTime" NumberOfComponents="1" format="ascii" >
0 1.59705 2.12541 2.64586 3.17101 3.70471 4.23515 4.76424 5.32287 5.8765 6.43714 6.9799 7.52561 8.09806 8.66501 9.25546 9.82784 10.4181 11.0309 11.6391 12.2562 12.8655 13.4861 14.102 14.7438 15.3814 16.0287 16.6896 17.3819 18.0588 18.7186 19.3696 20.0625 20.7693 21.4871 22.2203 22.9461 23.675 24.4179 25.1897 25.9734 26.7519 27.5182 28.3159 29.1514 29.9864 30.8043 31.6263 32.5124 33.3802 34.2424 35.1353 36.0123 36.9295 37.8548 38.7799 39.7346 40.6859 41.6777 42.6568 43.678 44.7264 45.7775 46.8097 47.8928 48.9848 50.105 51.2005 52.3062 53.528 54.8012 56.0428 57.2672 58.5471 59.8521 61.1917 62.5931 64.0341 65.508 66.9159 68.408 69.9434 71.5575 73.1557 74.8603 76.5762 78.3617 80.1536 82.0124 83.9187 85.9307 87.9407 90.1221 92.2769 94.5893 96.8521 99.3343 101.821 104.517 107.232 110.141 113.23 116.563 119.885 123.57 127.377 131.442 135.795 140.474 145.662 151.552 157.552 
</DataArray>

</CellData>
<Points>
<DataArray type="Float32" Name="Coordinates" NumberOfComponents="3" format="ascii" >
0 0 -3 -0.00235155 0.00112318 -3.3753 0.0107234 0.00161382 -4.29301 0.0221965 -0.0081987 -5.18929 0.101403 -0.122863 -6.07524 0.204155 -0.159793 -6.97228 0.26848 -0.212425 -7.85881 0.338971 -0.261812 -8.73514 0.365453 -0.235602 -9.65594 0.32661 -0.298482 -10.558 0.290276 -0.291534 -11.4656 0.26035 -0.288295 -12.3365 0.243525 -0.265091 -13.2046 0.211631 -0.265667 -14.1069 0.164847 -0.230861 -14.9909 0.116668 -0.214336 -15.9036 0.0615029 -0.153642 -16.7775 0.0103212 -0.0408299 -17.6656 -0.0714176 0.0511178 -18.5793 0.149957 0.0964604 -19.4565 0.416278 0.142273 -20.3255 0.554148 -0.0061967 -21.1919 0.624553 0.0585888 -22.084 0.627877 0.00110354 -22.9636 0.648879 -0.081031 -23.8689 0.670194 -0.165118 -24.7588 0.662064 -0.217324 -25.6554 0.658481 -0.280933 -26.5605 0.655438 -0.344046 -27.4984 0.603079 -0.547531 -28.3828 0.553104 -0.735733 -29.2375 0.454283 -0.775057 -30.0865 0.556696 -0.819655 -30.9805 0.777875 -0.780123 -31.8607 0.942508 -0.710058 -32.7553 0.961216 -0.973579 -33.6372 1.1597 -0.935229 -34.515 1.23363 -0.865657 -35.4032 1.21025 -0.858914 -36.3033 1.18678 -0.856511 -37.2268 1.18874 -0.883287 -38.1529 1.26331 -0.865035 -39.0583 1.12841 -0.937442 -39.9282 1.08741 -1.22424 -40.7888 0.971472 -1.29758 -41.7171 1.1234 -1.33171 -42.6291 1.2382 -1.34209 -43.5158 1.36345 -1.37457 -44.3931 1.45512 -1.43428 -45.3296 1.48322 -1.37638 -46.2375 1.51004 -1.30644 -47.1262 1.55814 -1.31629 -48.0354 1.70232 -1.26594 -48.9036 1.73619 -1.26695 -49.8116 1.79009 -1.23061 -50.7123 1.76693 -1.1966 -51.6008 1.74426 -1.1975 -52.5045 1.68756 -1.30054 -53.3835 1.67579 -1.39846 -54.2884 1.49557 -1.50577 -55.1475 1.43401 -1.50304 -56.0528 1.38245 -1.50343 -56.9675 1.42368 -1.55827 -57.8679 1.45436 -1.37037 -58.7188 1.55779 -1.35785 -59.612 1.5172 -1.41895 -60.4998 1.51871 -1.48483 -61.3951 1.49474 -1.53405 -62.2555 1.46866 -1.59286 -63.1079 1.47045 -1.69368 -64.0292 1.47214 -1.79975 -64.9698 1.35579 -1.93053 -65.8571 1.21727 -2.01438 -66.7161 1.12649 -1.82261 -67.586 1.11864 -1.76077 -68.478 1.02469 -1.80672 -69.3701 1.11017 -1.85196 -70.284 1.09189 -1.94476 -71.2027 1.05245 -2.12376 -72.1067 1.03153 -2.24686 -72.9585 1.01013 -2.37384 -73.8401 1.01571 -2.4668 -74.73 0.985828 -2.40341 -75.6441 1.08567 -2.33309 -76.5201 1.05932 -2.23458 -77.4328 1.24374 -2.32973 -78.3077 1.42772 -2.41602 -79.1941 1.59166 -2.51386 -80.0599 1.74489 -2.61257 -80.934 1.90206 -2.71128 -81.8025 2.0522 -2.74414 -82.6974 2.1775 -2.7849 -83.5655 2.33439 -2.7969 -84.4729 2.39308 -2.81669 -85.3491 2.44321 -2.81841 -86.2567 2.58015 -2.79372 -87.1025 2.62445 -2.79413 -88.0061 2.71911 -2.79547 -88.8714 2.8124 -2.7997 -89.7717 2.76562 -2.83904 -90.6417 2.76425 -2.83892 -91.5347 2.70267 -2.84815 -92.4354 2.74121 -2.83151 -93.3596 2.76456 -2.7902 -94.2316 2.77488 -2.73008 -95.1452 2.85422 -2.70692 -96.0311 2.89946 -2.64884 -96.9196 3.07494 -2.62882 -97.7936 3.02823 -2.67621 -98.6817 2.97113 -2.66773 -99.5915 2.93767 -2.55837 -100.531 2.86663 -2.63222 -101.4 2.82427 -2.97129 -102.241 2.76135 -3.20006 -103.119 2.71053 -3.35192 -103.932 -0.00235155 0.00112318 -3.3753 0.216834 -0.929577 -3.08246 0.246058 -1.91837 -2.93606 0.27149 -2.90694 -2.78747 0.292626 -3.89589 -2.64069 0.441316 -4.88475 -2.6468 0.760704 -5.74924 -3.03494 1.10599 -6.6116 -3.40522 1.466 -7.50042 -3.68877 1.99741 -8.28233 -4.01467 2.62502 -8.94601 -4.35436 0.0107234 0.00161382 -4.29301 0.821155 0.561862 -4.46425 1.60893 0.996533 -4.90069 2.41236 1.48136 -5.2463 3.12594 2.02786 -5.68464 3.85289 2.58239 -6.08964 4.42611 3.13763 -6.69224 5.01478 3.61475 -7.3448 5.62958 4.17405 -7.90086 6.09339 4.80886 -8.51883 6.47229 5.32442 -9.19922 0.0221965 -0.0081987 -5.18929 0.0211083 0.982633 -5.32439 0.0456885 1.97882 -5.40809 0.0457949 2.9742 -5.50414 -0.0180748 3.95895 -5.66595 -0.173332 4.92549 -5.87015 -0.348581 5.88849 -6.07489 -0.447732 6.85874 -6.29576 -0.560423 7.82135 -6.54211 -0.556744 8.77909 -6.82972 -0.606884 9.55325 -7.4357 0.101403 -0.122863 -6.07524 0.565831 0.742214 -6.26484 1.05155 1.54753 -6.60476 1.50026 2.38014 -6.92945 2.03698 3.15013 -7.27447 2.56023 3.93329 -7.61043 3.12507 4.60604 -8.0883 3.41098 5.39605 -8.63066 3.53295 6.22933 -9.16987 3.98343 6.92558 -9.72872 4.41472 7.62793 -10.1805 0.204155 -0.159793 -6.97228 0.141739 0.805697 -7.22512 -0.0135542 1.73526 -7.55949 -0.227781 2.63844 -7.93147 -0.532343 3.50897 -8.31802 -1.00971 4.15403 -8.91469 -1.33337 4.80328 -9.60296 -1.78312 5.35466 -10.3056 -2.20405 5.80933 -11.0905 -2.66321 6.07771 -11.9374 -3.32348 6.28039 -12.6378 0.26848 -0.212425 -7.85881 0.148373 0.691908 -8.26839 0.120199 1.51276 -8.83884 0.129076 2.30026 -9.45509 0.11685 3.0503 -10.1164 0.10771 3.72119 -10.8579 0.214666 4.43299 -11.5521 0.389858 5.1092 -12.2676 0.777455 5.48889 -13.1076 1.09132 5.81504 -13.9993 1.54719 5.83437 -14.8607 0.338971 -0.261812 -8.73514 -0.347903 0.463944 -8.69664 -0.861231 1.30142 -8.88407 -1.38959 2.13602 -9.03987 -1.94755 2.95113 -9.19571 -2.36466 3.84814 -9.34194 -2.64534 4.7984 -9.47692 -2.88988 5.75483 -9.63642 -2.99614 6.74082 -9.76502 -3.00051 7.69543 -10.0629 -2.93893 8.5822 -10.3944 0.365453 -0.235602 -9.65594 -0.520497 0.195225 -9.48424 -1.18206 0.909446 -9.25571 -1.83353 1.64635 -9.07528 -2.31479 2.51222 -8.93867 -2.86859 3.33846 -8.83557 -3.25712 4.25774 -8.89864 -3.61621 5.14311 -9.19389 -3.93527 5.97577 -9.64652 -4.11826 6.87387 -10.0464 -4.22839 7.67126 -10.5005 0.32661 -0.298482 -10.558 -0.21001 -1.14012 -10.6187 -0.807904 -1.92999 -10.7552 -1.54682 -2.55203 -11.0142 -2.2435 -3.22752 -11.2557 -2.91092 -3.89158 -11.5927 -3.57388 -4.57134 -11.9064 -4.10942 -5.26926 -12.3819 -4.64146 -5.97635 -12.8477 -5.24675 -6.62659 -13.3069 -5.78652 -7.26775 -13.7059 0.290276 -0.291534 -11.4656 -0.403371 0.424598 -11.388 -1.18693 1.0459 -11.3847 -1.92665 1.71404 -11.4648 -2.64852 2.40348 -11.5246 -3.38747 3.0743 -11.5875 -3.99638 3.79162 -11.9262 -4.57663 4.23702 -12.608 -5.15093 4.50249 -13.3824 -5.54318 4.7457 -14.2695 -5.83606 4.64611 -15.1745 0.26035 -0.288295 -12.3365 1.25578 -0.332666 -12.421 2.25506 -0.311517 -12.4527 3.24053 -0.454755 -12.5439 4.22781 -0.576343 -12.6464 5.21904 -0.670237 -12.7394 6.08861 -0.409238 -13.1585 6.97606 -0.197016 -13.5677 7.88343 0.0526003 -13.9059 8.64251 0.237429 -14.5301 9.35095 0.329653 -15.1994 0.243525 -0.265091 -13.2046 1.14696 -0.658219 -13.3756 2.09788 -0.900239 -13.5684 3.05173 -1.13944 -13.75 3.95841 -1.31895 -14.1317 4.86071 -1.44951 -14.5426 5.67098 -1.49513 -15.1268 6.5108 -1.60747 -15.658 7.29293 -1.88035 -16.2181 8.05613 -2.12908 -16.8145 8.42046 -2.54192 -17.5944 0.211631 -0.265667 -14.1069 -0.723681 -0.49631 -14.3752 -1.46263 -0.858386 -14.9434 -2.00032 -1.30207 -15.6604 -2.56706 -1.56266 -16.442 -2.9691 -1.60101 -17.3568 -3.36236 -1.58496 -18.2761 -3.52254 -1.61442 -19.2627 -3.68884 -1.65005 -20.2482 -3.8651 -1.69556 -21.2314 -3.97459 -1.71374 -22.2112 0.164847 -0.230861 -14.9909 0.802985 -0.998481 -15.0504 1.36678 -1.81423 -15.1796 1.99283 -2.55417 -15.4257 2.61125 -3.302 -15.6672 3.24662 -3.99837 -16.0009 3.86795 -4.67013 -16.4042 4.29141 -5.34709 -17.0062 4.71643 -6.02388 -17.6073 5.12207 -6.71422 -18.2064 5.67584 -7.16525 -18.8391 0.116668 -0.214336 -15.9036 -0.0680761 0.767713 -15.9416 -0.376377 1.71301 -16.0483 -0.80443 2.59933 -16.2249 -1.21316 3.48853 -16.4305 -1.71814 4.32778 -16.6321 -2.33957 5.09248 -16.8026 -2.96992 5.82345 -17.064 -3.46701 6.5749 -17.4978 -4.07685 7.19662 -17.9893 -4.58481 7.79095 -18.5855 0.0615029 -0.153642 -16.7775 0.349111 -1.11022 -16.7301 0.655653 -2.0516 -16.8709 0.913039 -3.0052 -17.0271 1.24914 -3.93803 -17.157 1.59841 -4.86896 -17.2637 2.05213 -5.69599 -17.5956 2.59113 -6.46634 -17.9363 3.14808 -7.16551 -18.3846 3.73864 -7.82842 -18.8448 4.21841 -8.33299 -19.5093 0.0103212 -0.0408299 -17.6656 0.533638 0.745698 -17.9935 1.15663 1.42621 -18.3792 1.75559 2.1087 -18.7981 2.12841 2.93249 -19.2252 2.50406 3.74819 -19.6651 2.79048 4.52919 -20.2201 3.06448 5.26423 -20.8403 3.36079 6.02701 -21.415 3.65679 6.79003 -21.9896 3.87567 7.46309 -22.6263 -0.0714176 0.0511178 -18.5793 0.459559 -0.661369 -19.038 0.834216 -1.27244 -19.7353 1.31764 -1.77305 -20.4534 1.85609 -2.08839 -21.2348 2.43641 -2.49182 -21.9423 2.80965 -2.76224 -22.8297 3.09337 -2.92893 -23.774 3.2549 -3.07827 -24.7495 3.3287 -3.09202 -25.7467 3.31629 -2.96583 -26.6724 0.149957 0.0964604 -19.4565 0.807423 0.764063 -19.1071 1.50225 1.4124 -18.7959 2.19265 2.11922 -18.6418 2.84934 2.87288 -18.6692 3.43437 3.61602 -18.994 3.99634 4.39338 -19.2766 4.57383 5.17341 -19.5176 5.42141 5.60319 -19.8289 6.24578 6.03988 -20.189 6.76658 6.6907 -20.5446 0.416278 0.142273 -20.3255 1.31149 0.171381 -19.8808 2.2666 0.0484381 -19.6113 3.17687 -0.345213 -19.7396 4.16762 -0.475915 -19.7759 5.14548 -0.6647 -19.8662 6.03694 -1.07663 -20.0549 6.86104 -1.61284 -20.2375 7.59054 -2.28496 -20.3643 8.20969 -3.02565 -20.6251 8.76699 -3.72372 -20.875 0.554148 -0.0061967 -21.1919 0.710873 0.981229 -21.2126 0.986962 1.93972 -21.1414 1.2075 2.91323 -21.2018 1.61823 3.82468 -21.2255 2.01328 4.73872 -21.3175 2.25239 5.68202 -21.5477 2.21821 6.63971 -21.8335 2.16131 7.58335 -22.1596 1.97383 8.50308 -22.5044 1.75649 9.30077 -22.9109 0.624553 0.0585888 -22.084 0.84302 1.02927 -22.1842 1.07955 1.98901 -22.3357 1.12293 2.9774 -22.4813 1.40977 3.91042 -22.6986 1.66308 4.86165 -22.8746 2.11753 5.72958 -23.0751 2.58328 6.53494 -23.4418 3.09167 7.32522 -23.7838 3.67123 7.99323 -24.2506 3.95923 8.80563 -24.7164 0.627877 0.00110354 -22.9636 -0.0714053 -0.658107 -23.2401 -0.824318 -1.2664 -23.4913 -1.58117 -1.87031 -23.7413 -2.24418 -2.28834 -24.3623 -2.82584 -2.60138 -25.1131 -3.41263 -2.9103 -25.8616 -3.92388 -3.29382 -26.6307 -4.48139 -3.62048 -27.3939 -5.10319 -3.68093 -28.1747 -5.5002 -3.76996 -29.0243 0.648879 -0.081031 -23.8689 0.880398 -1.03035 -24.0815 1.05698 -1.96956 -24.376 1.149 -2.94018 -24.5983 1.26004 -3.90704 -24.8282 1.66749 -4.67946 -25.3154 1.99498 -5.42193 -25.8997 2.32438 -6.16522 -26.482 2.62543 -6.7478 -27.237 2.84789 -7.31052 -28.0331 3.05611 -7.70047 -28.9132 0.670194 -0.165118 -24.7588 1.63795 -0.410491 -24.7018 2.57344 -0.761117 -24.6581 3.55584 -0.947904 -24.655 4.51379 -1.23466 -24.6655 5.46878 -1.48999 -24.8164 6.44764 -1.63139 -24.9642 7.40407 -1.83622 -25.1723 8.22448 -2.33948 -25.4436 9.01451 -2.88097 -25.7311 9.72155 -3.40566 -25.9769 0.662064 -0.217324 -25.6554 -0.175318 0.197633 -26.0112 -0.932935 0.645122 -26.4863 -1.61733 1.26569 -26.8691 -2.11552 1.97937 -27.3615 -2.65362 2.62177 -27.9072 -3.19133 3.24646 -28.4734 -3.73053 3.86284 -29.0473 -4.1948 4.53259 -29.6269 -4.54979 4.90544 -30.4842 -4.66851 4.87089 -31.4636 0.658481 -0.280933 -26.5605 0.134859 0.570709 -26.5835 -0.600951 1.22813 -26.7459 -1.31013 1.92455 -26.8557 -2.01995 2.62298 -26.9471 -2.8702 3.12831 -27.0945 -3.62585 3.70939 -27.3967 -4.28619 4.13076 -28.0183 -4.95126 4.54727 -28.6382 -5.34148 5.14608 -29.3375 -5.54046 5.66036 -30.1537 0.655438 -0.344046 -27.4984 1.10288 -1.23425 -27.4128 1.49721 -2.14591 -27.2971 1.73208 -3.11772 -27.3177 1.76805 -4.11377 -27.399 1.74046 -5.09895 -27.5682 2.01955 -5.92828 -28.0523 2.36781 -6.78292 -28.4374 2.83456 -7.45151 -29.0163 3.24641 -8.15623 -29.594 3.52167 -8.73366 -30.2471 0.603079 -0.547531 -28.3828 1.42487 -1.05364 -28.6446 2.34667 -1.38908 -28.8389 3.18588 -1.82585 -29.1629 4.03588 -2.16727 -29.564 4.89052 -2.47053 -29.9855 5.76496 -2.57262 -30.4598 6.62545 -2.57679 -30.9692 7.38996 -2.72749 -31.596 8.09249 -2.92064 -32.2809 8.71455 -3.19011 -32.8859 0.553104 -0.735733 -29.2375 -0.365306 -0.426697 -29.4846 -1.18123 0.088224 -29.7475 -1.99667 0.604276 -30.0097 -2.69366 1.29476 -30.2031 -3.36777 1.96743 -30.5082 -3.92217 2.62702 -31.0158 -4.34892 3.37253 -31.5277 -4.71204 4.02926 -32.1887 -4.98392 4.60197 -32.962 -5.21604 4.96287 -33.7581 0.454283 -0.775057 -30.0865 -0.339036 -0.193605 -30.2669 -1.0805 0.440889 -30.4852 -1.98186 0.830109 -30.6751 -2.86476 1.08931 -31.0667 -3.7932 1.06925 -31.4376 -4.68993 0.999568 -31.8747 -5.53284 0.918615 -32.4066 -6.29865 0.960154 -33.0483 -7.00296 1.08798 -33.7466 -7.6299 1.02561 -34.5089 0.556696 -0.819655 -30.9805 0.305377 -1.78681 -30.9425 0.0546358 -2.75441 -30.9126 -0.129246 -3.73572 -30.8558 -0.298977 -4.71833 -30.7806 -0.476101 -5.69831 -30.6897 -0.85116 -6.62196 -30.611 -1.25148 -7.53812 -30.591 -1.64971 -8.45522 -30.5725 -2.2237 -9.21821 -30.8698 -3.02662 -9.69533 -31.2026 0.777875 -0.780123 -31.8607 1.46064 -0.0519332 -31.801 2.22248 0.595133 -31.8312 2.97838 1.21143 -32.0521 3.7344 1.83724 -32.2439 4.46915 2.47423 -32.4771 5.2079 2.78938 -33.0729 5.9875 3.08131 -33.627 6.74417 3.4057 -34.1946 7.5754 3.65586 -34.6768 8.30592 3.90374 -35.2278 0.942508 -0.710058 -32.7553 0.350521 -1.27102 -33.3339 -0.244804 -1.74335 -33.9839 -0.588536 -2.1232 -34.8427 -0.870462 -2.17969 -35.8005 -1.2005 -2.27268 -36.7399 -1.56921 -2.27343 -37.6694 -1.60974 -2.42395 -38.6572 -1.606 -2.53904 -39.6506 -1.51367 -2.63768 -40.6414 -1.45698 -2.60746 -41.6238 0.961216 -0.973579 -33.6372 0.0999574 -0.501273 -33.8247 -0.75364 -0.0303338 -34.0474 -1.67911 0.282337 -34.2613 -2.60714 0.581951 -34.4826 -3.54321 0.870077 -34.6845 -4.44453 1.19967 -34.9656 -5.34238 1.51445 -35.2734 -6.23986 1.8348 -35.5766 -7.12703 2.1283 -35.9327 -8.02929 2.33445 -36.2536 1.1597 -0.935229 -34.515 2.15394 -0.98806 -34.6084 3.12892 -0.794885 -34.7183 4.11585 -0.65104 -34.791 5.09909 -0.476257 -34.8429 6.01362 -0.112934 -35.0207 6.93601 0.183325 -35.2686 7.86216 0.377928 -35.5916 8.72847 0.542477 -36.0633 9.58656 0.655283 -36.5642 10.3984 0.484994 -37.0738 1.23363 -0.865657 -35.4032 0.888312 0.0706976 -35.4664 0.500377 0.988616 -35.5497 0.424546 1.97622 -35.6871 0.528107 2.94819 -35.8982 0.615718 3.90879 -36.1619 0.799538 4.84622 -36.4577 0.99216 5.78678 -36.7374 1.19519 6.62698 -37.2402 1.37487 7.41998 -37.8223 1.71721 8.11062 -38.4264 1.21025 -0.858914 -36.3033 0.831183 -1.78354 -36.3404 0.472765 -2.71391 -36.4174 0.132044 -3.64868 -36.518 -0.282121 -4.55128 -36.6354 -0.800256 -5.40164 -36.7271 -1.35746 -6.16735 -37.0484 -1.75103 -7.04385 -37.3256 -2.17536 -7.93105 -37.5068 -2.69353 -8.75983 -37.718 -3.17915 -9.5659 -37.9749 1.18678 -0.856511 -37.2268 1.68257 -1.7151 -37.3572 2.16101 -2.58948 -37.4382 2.62019 -3.47113 -37.5471 3.09154 -4.34691 -37.6512 3.48196 -5.24403 -37.8579 3.86625 -6.10001 -38.2038 4.27567 -6.93031 -38.5819 4.73313 -7.72244 -38.986 5.25576 -8.50528 -39.3236 5.75085 -9.26878 -39.7096 1.18874 -0.883287 -38.1529 0.481211 -1.55012 -38.3869 -0.259345 -2.11783 -38.7465 -0.938215 -2.72574 -39.1582 -1.61842 -3.32341 -39.5826 -2.28237 -3.92493 -40.0269 -2.90271 -4.49904 -40.5613 -3.58499 -4.94976 -41.1369 -4.31282 -5.4798 -41.572 -4.84518 -6.09029 -42.1584 -5.23229 -6.727 -42.7573 1.26331 -0.865035 -39.0583 1.3554 -1.84765 -38.8971 1.49663 -2.83628 -38.9486 1.42429 -3.80391 -39.1905 1.34144 -4.77549 -39.4122 1.21119 -5.7382 -39.6493 1.32603 -6.70113 -39.8934 1.36419 -7.64083 -40.2333 1.30983 -8.62026 -40.4276 1.39978 -9.5398 -40.8101 1.24956 -10.4504 -41.1346 1.12841 -0.937442 -39.9282 1.9799 -1.44272 -40.0684 2.8034 -1.92322 -40.37 3.59026 -2.49634 -40.5989 4.36624 -3.05072 -40.8998 5.13899 -3.59757 -41.222 5.87668 -4.06883 -41.7055 6.64643 -4.32244 -42.2912 7.34295 -4.4624 -42.995 8.03481 -4.60579 -43.7027 8.69962 -4.80593 -44.407 1.08741 -1.22424 -40.7888 1.61192 -0.418347 -41.0634 2.14255 0.383696 -41.3376 2.61218 1.02661 -41.9426 2.94416 1.7612 -42.5344 3.14593 2.48521 -43.194 3.33925 3.20442 -43.8613 3.4535 3.92525 -44.545 3.38687 4.70812 -45.1636 3.39007 5.32376 -45.9516 3.34687 5.54691 -46.857 0.971472 -1.29758 -41.7171 1.47939 -0.436365 -41.7354 1.72835 0.530739 -41.7877 2.01775 1.48737 -41.8208 2.36029 2.39907 -42.0477 2.61789 3.30802 -42.3755 2.66811 4.302 -42.4728 2.70795 5.28426 -42.6561 2.80153 6.24514 -42.9167 2.90688 7.16229 -43.3011 3.12162 7.97578 -43.7536 1.1234 -1.33171 -42.6291 0.290576 -0.798201 -42.7767 -0.545869 -0.27052 -42.9247 -1.38761 0.220324 -43.1495 -2.25662 0.667663 -43.361 -3.13756 1.10986 -43.5295 -4.00413 1.60807 -43.5584 -4.83579 2.15333 -43.6634 -5.69535 2.58192 -43.9418 -6.54779 3.01684 -44.2319 -7.37093 3.39111 -44.6328 1.2382 -1.34209 -43.5158 0.274981 -1.60924 -43.4868 -0.659316 -1.95264 -43.5826 -1.61084 -2.12468 -43.8375 -2.4649 -2.3416 -44.3103 -3.36773 -2.52285 -44.7002 -4.08557 -2.76173 -45.3542 -4.73674 -2.89722 -46.1009 -5.36197 -2.75322 -46.868 -5.96804 -2.59178 -47.6468 -6.37888 -2.33638 -48.4169 1.36345 -1.37457 -44.3931 1.33012 -2.34988 -44.1748 1.22666 -3.33693 -44.0522 1.1121 -4.32241 -43.9269 1.00618 -5.30847 -43.7985 0.882205 -6.29781 -43.8749 0.873519 -7.25479 -44.1649 1.16074 -8.06202 -44.6805 1.34522 -8.85459 -45.2617 1.0606 -9.62197 -45.8363 0.63471 -10.2026 -46.454 1.45512 -1.43428 -45.3296 2.45375 -1.48037 -45.3046 3.43686 -1.36854 -45.4494 4.42854 -1.43897 -45.5572 5.33376 -1.05482 -45.7389 6.22669 -0.993619 -46.1849 7.09218 -0.995867 -46.6858 8.05187 -0.936845 -46.9606 8.96664 -0.633688 -47.2276 9.84668 -0.462543 -47.6706 10.6384 -0.305469 -48.1162 1.48322 -1.37638 -46.2375 0.859345 -0.605348 -46.3652 0.491319 0.257628 -46.7113 0.118006 1.15169 -46.9589 -0.203576 2.06039 -47.2251 -0.695325 2.76104 -47.7421 -1.18788 3.44255 -48.2833 -1.67832 4.11413 -48.8387 -2.10656 4.70096 -49.5259 -2.52026 5.25528 -50.2481 -2.80289 5.46674 -51.1203 1.51004 -1.3