<?xml version="1.0"?><VTKFile type="PolyData" version="0.1" byte_order="LittleEndian">
<PolyData>
<Piece NumberOfLines="15" NumberOfPoints="91">
<PointData Scalars=" PointData">
<DataArray type="Float32" Name="time" NumberOfComponents="1" format="ascii" >
0 0.256465 0.994152 1.70797 2.40977 3.12975 3.8548 4.59445 5.37572 6.15803 6.94307 7.72831 8.54973 9.3638 10.2281 11.0941 12.0032 12.8904 13 2.1007 3.2961 4.63246 6.14749 7.89647 9.96507 12.4968 13 2.86837 3.98952 5.24286 6.66377 8.3041 10.2442 12.6187 13 3.61168 5.03622 6.62873 8.43416 10.5184 12.9835 13 4.34295 5.54073 6.87974 8.39779 10.1502 12.223 13 5.09363 6.40529 7.8716 9.53396 11.453 13 5.85011 7.19939 8.70775 10.4178 12.3919 13 6.62235 7.94172 9.41666 11.0888 13 7.43863 8.63833 9.97948 11.4999 13 8.25662 9.29751 10.4611 11.7803 13 9.0781 10.6635 12.4357 13 9.90044 11.2642 12.7888 13 10.7614 11.9311 13 11.6153 13 12.5228 13 
</DataArray>

</PointData>
<CellData Scalars=" CellData">
<DataArray type="Float32" Name="radius" NumberOfComponents="1" format="ascii" >
0.0407527 0.0279371 0.0321366 0.027478 0.023076 0.0259652 0.0301565 0.0240296 0.0265266 0.0346889 0.0281941 0.0322565 0.0253942 0.026047 0.0262081 
</DataArray>
<DataArray type="Float32" Name="subType" NumberOfComponents="1" format="ascii" >
1 2 2 2 2 2 2 2 2 2 2 2 2 2 2 
</DataArray>
<DataArray type="Float32" Name="creationTime" NumberOfComponents="1" format="ascii" >
0 2.1007 2.86837 3.61168 4.34295 5.09363 5.85011 6.62235 7.43863 8.25662 9.0781 9.90044 10.7614 11.6153 12.5228 
</DataArray>

</CellData>
<Points>
<DataArray type="Float32" Name="Coordinates" NumberOfComponents="3" format="ascii" >
0 0 -3 -0.0242303 -0.0207783 -3.33157 -0.0809067 -0.0978902 -4.2747 -0.150281 -0.142373 -5.17408 -0.182263 -0.0220351 -6.03974 0.108067 0.0199366 -6.87328 0.226646 0.189393 -7.72473 0.326099 0.239324 -8.59759 0.390603 0.277735 -9.50892 0.426387 0.264871 -10.4085 0.457454 0.264985 -11.2965 0.4586 0.245157 -12.1702 0.475512 0.235221 -13.0685 0.469678 0.255347 -13.9433 0.561178 0.303347 -14.8499 0.590624 0.347613 -15.7459 0.478883 0.322984 -16.6631 0.466521 0.212661 -17.5411 0.453767 0.207489 -17.6483 -0.0242303 -0.0207783 -3.33157 0.0320105 -1.01899 -3.35202 0.00297665 -2.00466 -3.51816 -0.0337963 -2.99238 -3.67004 0.00702834 -3.97652 -3.84266 0.0460722 -4.94119 -4.10319 0.162062 -5.82393 -4.55851 0.184887 -5.97388 -4.64279 -0.0809067 -0.0978902 -4.2747 -0.707152 0.620443 -3.97169 -1.5473 1.03204 -3.61852 -2.33614 1.48273 -3.20064 -3.17908 1.85587 -2.81308 -4.04159 2.09304 -2.36605 -4.92421 2.348 -1.97111 -5.05598 2.3766 -1.93056 -0.150281 -0.142373 -5.17408 -0.916914 0.49968 -5.16771 -1.66791 1.15992 -5.15804 -2.38343 1.85851 -5.1597 -3.03229 2.6179 -5.20756 -3.68854 3.36895 -5.13491 -3.69254 3.37354 -5.13443 -0.182263 -0.0220351 -6.03974 0.679963 -0.528192 -6.02045 1.52613 -1.06104 -6.01208 2.32606 -1.66074 -6.03416 3.11918 -2.26967 -6.04674 4.02668 -2.6573 -6.20856 4.30641 -2.81213 -6.29163 0.108067 0.0199366 -6.87328 -0.731219 0.555819 -6.78147 -1.53116 1.14002 -6.64434 -2.2063 1.87334 -6.72446 -2.73499 2.69029 -6.95485 -3.09361 3.26877 -7.12313 0.226646 0.189393 -7.72473 0.983595 0.800249 -7.49261 1.65136 1.54066 -7.41592 2.34642 2.25518 -7.33624 3.05199 2.96088 -7.40084 3.24918 3.14497 -7.46902 0.326099 0.239324 -8.59759 0.393144 -0.7495 -8.46443 0.51073 -1.74254 -8.47179 0.458339 -2.73944 -8.53046 0.382328 -3.66283 -8.88159 0.390603 0.277735 -9.50892 -0.275463 1.01326 -9.63287 -1.10534 1.54816 -9.79157 -1.93381 2.08545 -9.9495 -2.56945 2.64988 -10.1041 0.426387 0.264871 -10.4085 -0.22504 -0.48008 -10.5524 -0.801879 -1.27357 -10.7464 -1.24863 -2.10641 -11.0732 -1.53463 -2.76236 -11.459 0.457454 0.264985 -11.2965 0.120684 -0.625743 -11.6018 -0.249415 -1.42379 -12.0773 -0.366725 -1.6341 -12.2467 0.4586 0.245157 -12.1702 1.40498 0.557421 -12.0873 2.37922 0.746763 -11.9649 2.506 0.768165 -11.9494 0.475512 0.235221 -13.0685 0.461319 -0.760222 -12.9742 0.545805 -1.57818 -12.8952 0.469678 0.255347 -13.9433 -0.0630487 -0.527875 -13.9358 0.561178 0.303347 -14.8499 0.274951 0.0967805 -14.7868 
</DataArray>
</Points>
<Lines>
<DataArray type="Int32" Name="connectivity" NumberOfComponents="1" format="ascii" >
0 1 2 3 4 5 6 7 8 9 10 11 12 13 14 15 16 17 18 19 20 21 22 23 24 25 26 27 28 29 30 31 32 33 34 35 36 37 38 39 40 41 42 43 44 45 46 47 48 49 50 51 52 53 54 55 56 57 58 59 60 61 62 63 64 65 66 67 68 69 70 71 72 73 74 75 76 77 78 79 80 81 82 83 84 85 86 87 88 89 90 
</DataArray>
<DataArray type="Int32" Name="offsets" NumberOfComponents="1" format="ascii" >
19 27 35 42 49 55 61 66 71 76 80 84 87 89 91 
</DataArray>

</Lines>
</Piece>
</PolyData>
</VTKFile>
