<?xml version="1.0"?><VTKFile type="PolyData" version="0.1" byte_order="LittleEndian">
<PolyData>
<Piece NumberOfLines="16" NumberOfPoints="115">
<PointData Scalars=" PointData">
<DataArray type="Float32" Name="time" NumberOfComponents="1" format="ascii" >
0 0.0532813 0.501331 1.02641 1.49531 1.97507 2.52388 3.05079 3.4762 3.94383 4.39343 4.87825 5.39498 5.85127 6.3867 6.90552 7 0.102265 0.157804 0.864931 1.70154 2.55126 3.25147 4.22099 5.04925 6.06519 7 0.55075 0.597266 1.35085 2.09706 3.05863 3.94199 4.80694 5.77566 6.70003 7 1.07635 1.11849 1.94203 2.75942 3.52532 4.28629 4.99914 5.74184 6.68957 7 1.54571 1.60022 2.56365 3.45295 4.39406 5.34215 6.17276 7 2.02595 2.07331 2.86232 3.59536 4.45094 5.33805 6.0313 6.76554 7 2.57531 2.62311 3.35111 4.00246 4.8163 5.5588 6.28373 7 3.10276 3.14841 3.9405 4.73441 5.42453 6.2748 7 3.5286 3.58819 4.54235 5.42583 6.2967 7 3.99672 4.04752 4.87859 5.72507 6.69346 7 4.44679 4.49319 5.18276 5.83956 6.59607 7 4.93213 4.9729 5.66771 6.45515 7 5.4494 5.49279 6.27044 7 5.90619 5.95551 6.88755 7 6.4422 6.4871 7 6.96159 7 
</DataArray>

</PointData>
<CellData Scalars=" CellData">
<DataArray type="Float32" Name="radius" NumberOfComponents="1" format="ascii" >
0.046455 0.025858 0.0287951 0.0294569 0.0293743 0.0311556 0.028812 0.02533 0.0250647 0.0234761 0.02198 0.0278401 0.0306039 0.0275319 0.0284815 0.0283738 
</DataArray>
<DataArray type="Float32" Name="subType" NumberOfComponents="1" format="ascii" >
1 2 2 2 2 2 2 2 2 2 2 2 2 2 2 2 
</DataArray>
<DataArray type="Float32" Name="creationTime" NumberOfComponents="1" format="ascii" >
0 0.102265 0.55075 1.07635 1.54571 2.02595 2.57531 3.10276 3.5286 3.99672 4.44679 4.93213 5.4494 5.90619 6.4422 6.96159 
</DataArray>

</CellData>
<Points>
<DataArray type="Float32" Name="Coordinates" NumberOfComponents="3" format="ascii" >
0 0 -3 -3.78005e-05 -1.20203e-05 -3.09175 -0.11668 0.0882628 -3.84539 -0.287197 0.14251 -4.71836 -0.378027 0.0700356 -5.49775 -0.480286 -0.0147065 -6.28541 -0.584524 -0.0914308 -7.18062 -0.576835 -0.0915306 -8.03987 -0.56203 -0.0827462 -8.72692 -0.555271 -0.00893182 -9.4721 -0.548819 0.0616554 -10.1821 -0.515276 0.0547884 -10.9437 -0.46515 -0.00340255 -11.7446 -0.485928 0.103107 -12.4398 -0.459952 0.220813 -13.2486 -0.583666 0.22011 -14.0229 -0.618082 0.226059 -14.1605 -3.78005e-05 -1.20203e-05 -3.09175 -0.0233322 0.0434845 -3.11507 -0.468236 0.507846 -3.36466 -1.0023 1.03288 -3.65749 -1.53358 1.57993 -3.91102 -1.9549 2.05744 -4.05294 -2.59919 2.66747 -4.10852 -3.08405 3.22804 -4.01967 -3.5111 4.01646 -3.94745 -3.89668 4.72871 -3.8846 -0.11668 0.0882628 -3.84539 -0.0743464 0.109537 -3.84088 0.555712 0.526092 -3.95964 0.942772 1.14142 -4.12401 1.52288 1.83665 -4.38866 1.90535 2.55767 -4.62614 2.1898 3.32374 -4.63342 2.52521 4.15353 -4.5625 2.82755 4.93562 -4.51427 2.92678 5.18528 -4.49923 -0.287197 0.14251 -4.71836 -0.317589 0.115866 -4.71645 -0.983114 -0.285347 -4.60979 -1.5879 -0.750311 -4.53327 -2.14835 -1.1723 -4.43908 -2.70711 -1.57902 -4.38364 -3.2216 -1.95721 -4.33189 -3.75008 -2.34995 -4.32972 -4.44611 -2.74716 -4.12532 -4.65414 -2.90169 -4.05805 -0.378027 0.0700356 -5.49775 -0.415163 0.0410196 -5.47723 -1.08523 -0.457049 -5.14155 -1.71639 -0.956453 -5.00526 -2.32125 -1.55118 -4.96634 -2.90036 -2.16006 -4.95099 -3.41762 -2.66154 -4.87826 -3.81592 -3.19919 -4.64069 -0.480286 -0.0147065 -6.28541 -0.506336 -0.0484299 -6.26988 -0.937262 -0.60608 -6.01497 -1.33661 -1.10985 -5.77514 -1.6833 -1.63512 -5.29988 -2.09545 -2.14884 -4.8386 -2.42253 -2.56192 -4.51399 -2.81504 -3.07176 -4.45104 -2.94578 -3.22766 -4.43028 -0.584524 -0.0914308 -7.18062 -0.545992 -0.128193 -7.17374 0.0356629 -0.683432 -7.07005 0.576071 -1.13298 -6.943 1.20176 -1.69502 -6.69069 1.82504 -2.05457 -6.37108 2.45678 -2.38057 -6.11317 3.07577 -2.68423 -5.85763 -0.576835 -0.0915306 -8.03987 -0.583905 -0.0471604 -8.03368 -0.639175 0.694475 -7.79625 -0.688489 1.42826 -7.56619 -0.734476 2.06483 -7.3968 -0.810227 2.84178 -7.21483 -0.848016 3.4984 -7.07049 -0.56203 -0.0827462 -8.72692 -0.549919 -0.1344 -8.73089 -0.26494 -0.926619 -8.66714 0.0792194 -1.60984 -8.58685 0.363771 -2.23447 -8.29318 0.583936 -2.73199 -8.05329 -0.555271 -0.00893182 -9.4721 -0.5419 -0.0544946 -9.47204 -0.386061 -0.805028 -9.3936 -0.396201 -1.56241 -9.23983 -0.302269 -2.41908 -9.12321 -0.273784 -2.68714 -9.08623 -0.548819 0.0616554 -10.1821 -0.498788 0.0611036 -10.1828 0.233682 0.0790881 -10.2699 0.919045 0.131198 -10.1851 1.6652 0.344195 -10.063 2.06034 0.448639 -9.99618 -0.515276 0.0547884 -10.9437 -0.536973 0.0151759 -10.9432 -0.84114 -0.682645 -10.9986 -1.12102 -1.48561 -10.9971 -1.30799 -2.034 -10.9979 -0.46515 -0.00340255 -11.7446 -0.503 0.00412476 -11.7466 -1.14954 0.190502 -11.888 -1.74657 0.368808 -12.0182 -0.485928 0.103107 -12.4398 -0.447474 0.0731158 -12.4436 0.291622 -0.465433 -12.487 0.378799 -0.531346 -12.4898 -0.459952 0.220813 -13.2486 -0.432506 0.184658 -13.2444 -0.108226 -0.215206 -13.1902 -0.583666 0.22011 -14.0229 -0.550607 0.234258 -14.0277 
</DataArray>
</Points>
<Lines>
<DataArray type="Int32" Name="connectivity" NumberOfComponents="1" format="ascii" >
0 1 2 3 4 5 6 7 8 9 10 11 12 13 14 15 16 17 18 19 20 21 22 23 24 25 26 27 28 29 30 31 32 33 34 35 36 37 38 39 40 41 42 43 44 45 46 47 48 49 50 51 52 53 54 55 56 57 58 59 60 61 62 63 64 65 66 67 68 69 70 71 72 73 74 75 76 77 78 79 80 81 82 83 84 85 86 87 88 89 90 91 92 93 94 95 96 97 98 99 100 101 102 103 104 105 106 107 108 109 110 111 112 113 114 
</DataArray>
<DataArray type="Int32" Name="offsets" NumberOfComponents="1" format="ascii" >
17 27 37 47 55 64 72 79 85 91 97 102 106 110 113 115 
</DataArray>

</Lines>
</Piece>
</PolyData>
</VTKFile>
