<?xml version="1.0"?><VTKFile type="PolyData" version="0.1" byte_order="LittleEndian">
<PolyData>
<Piece NumberOfLines="495" NumberOfPoints="3054">
<PointData Scalars=" PointData">
<DataArray type="Float32" Name="time" NumberOfComponents="1" format="ascii" >
0 0.0532813 0.501331 1.02641 1.49531 1.97507 2.52388 3.05079 3.4762 3.94383 4.39343 4.87825 5.39498 5.85127 6.3867 6.90552 7.45328 8.01919 8.58286 9.15941 9.78793 10.3782 10.8779 11.4219 12.0147 12.5633 13.1569 13.8109 14.4619 15.0869 15.6238 16.2789 16.9178 17.5713 18.1591 18.9576 19.6505 20.3233 20.9745 21.7317 22.4125 23.2298 23.8149 24.4814 25.2047 26.0187 26.6257 27.35 28.2622 28.9273 29.5295 30 0.102265 0.157804 0.864931 1.70154 2.55126 3.25147 4.22099 5.04925 6.06519 7.03096 7.90738 8.88054 9.76307 10.8523 11.82 13.0223 14.0859 15.1926 16.2886 17.1587 18.1645 19.4426 20.5383 21.8108 22.9636 24.2943 25.3846 26.6574 28.2749 29.6767 30 9.2461 11.5103 14.0415 16.9112 20.2239 24.1421 28.9375 30 10.0892 12.146 14.4454 17.0521 20.0615 23.6207 27.9769 30 11.0895 13.149 15.4513 18.0614 21.0746 24.6385 29.0003 30 12.1088 14.2088 16.5564 19.2179 22.2903 25.9243 30 12.9512 14.8574 16.9883 19.4041 22.1929 25.4914 29.5285 30 14.1215 16.351 18.8433 21.6688 24.9306 28.7886 30 15.1249 17.1851 19.4883 22.0993 25.1136 28.6787 30 16.3604 18.5382 20.9728 23.7329 26.9192 30 17.5397 19.8309 22.3923 25.2962 28.6485 30 18.6142 20.8049 23.2538 26.0303 29.2354 30 19.8121 22.0862 24.6284 27.5105 30 20.903 23.018 25.3824 28.063 30 22.2555 24.3224 26.633 29.2525 30 23.4629 25.6504 28.0959 30 24.9708 27.2987 29.901 30 26.3123 28.804 30 27.7159 29.8538 30 29.1139 30 0.55075 0.597266 1.35085 2.09706 3.05863 3.94199 4.80694 5.77566 6.70003 7.51759 8.53628 9.36151 10.3389 11.2113 12.2286 13.1102 14.0428 14.8305 15.8354 16.9218 18.0281 19.2404 20.4526 21.6014 22.6629 23.8436 24.9755 26.0891 27.5345 28.9766 30 7.71071 10.0345 12.6323 15.5774 18.9773 22.9985 27.9201 30 8.58661 10.6313 12.917 15.5084 18.4999 22.0381 26.3685 30 9.45616 11.6261 14.0519 16.8021 19.9769 23.7319 28.3277 30 10.58 12.7424 15.1597 17.9003 21.0641 24.806 29.3857 30 11.6159 14.0076 16.6814 19.7127 23.212 27.3508 30 12.6334 14.3551 16.2797 18.4616 20.9805 23.9597 27.606 30 13.7769 15.738 17.9303 20.4157 23.2849 26.6784 30 14.8721 17.05 19.4847 22.245 25.4315 29.2003 30 15.844 17.7233 19.8241 22.2059 24.9555 28.2076 30 17.0594 19.0019 21.1734 23.6353 26.4773 29.8387 30 18.0477 20.2651 22.7438 25.554 28.7981 30 19.2228 21.9468 24.9919 28.4441 30 20.2757 22.3481 24.6648 27.2913 30 21.5087 23.7408 26.2362 29.0651 30 22.5818 25.0758 27.8639 30 23.7217 25.694 27.8988 30 24.6883 26.6502 28.8434 30 25.927 28.0706 30 27.2729 29.5939 30 28.6513 30 1.07635 1.11849 1.94203 2.75942 3.52532 4.28629 4.99914 5.74184 6.68957 7.69376 8.65506 9.50867 10.4759 11.3679 12.4187 13.4747 14.4685 15.4791 16.5172 17.4052 18.3575 19.427 20.469 21.5066 22.7593 24.0843 25.4398 26.8148 28.1587 29.4008 30 11.6479 13.5869 15.7545 18.212 21.0489 24.4043 28.511 30 12.652 14.7582 17.1127 19.782 22.8634 26.5081 30 13.6521 15.8827 18.3763 21.2033 24.4668 28.3268 30 14.5923 16.6606 18.9728 21.5941 24.6203 28.1994 30 15.5294 17.7835 20.3033 23.16 26.4578 30 16.4102 18.3476 20.5135 22.969 25.8036 29.1563 30 17.3308 19.4116 21.7377 24.3748 27.4192 30 18.51 20.4456 22.6094 25.0625 27.8944 30 19.7652 21.7122 23.8887 26.3563 29.2049 30 20.9723 22.9291 25.1167 27.5968 30 22.0489 24.1165 26.428 29.0485 30 23.2742 25.7444 28.5059 30 24.4095 26.6963 29.2527 30 25.7539 27.7421 29.9647 30 27.1122 29.2223 30 28.3977 30 29.7122 30 1.54571 1.60022 2.56365 3.45295 4.39406 5.34215 6.17276 7.27467 8.29716 9.36572 10.243 11.2519 12.3719 13.461 14.4926 15.4764 16.4991 17.655 18.8389 20.1508 21.103 22.017 23.1602 24.4891 25.8195 27.0408 28.3445 29.4316 30 9.83485 12.1041 14.641 17.517 20.8371 24.764 29.5701 30 10.9609 13.0147 15.3107 17.9136 20.9184 24.4724 28.8221 30 12.0035 13.8866 15.9918 18.3785 21.1336 24.3924 28.3807 30 13.11 15.0774 17.2767 19.7701 22.6486 26.053 30 14.2283 16.2133 18.4324 20.9482 23.8525 27.2876 30 15.211 17.6176 20.308 23.3582 26.8793 30 16.519 18.8201 21.3925 24.3088 27.6755 30 17.7373 20.223 23.0017 26.1519 29.7886 30 19.0154 21.0969 23.4239 26.0619 29.1074 30 20.0685 22.1849 24.5508 27.233 30 21.284 23.1535 25.2434 27.6128 30 22.6388 24.8372 27.2947 30 23.9621 25.9804 28.2366 30 25.2211 27.175 29.3592 30 26.4267 28.8975 30 27.6854 30 29.1149 30 2.02595 2.07331 2.86232 3.59536 4.45094 5.33805 6.0313 6.76554 7.63187 8.53072 9.48688 10.3429 11.3496 12.3656 13.4389 14.7358 15.7515 16.6845 17.634 18.7128 19.7314 20.6471 21.9979 23.4756 24.7787 26.1073 27.4808 28.7525 29.9262 30 11.0882 13.3746 15.9305 18.8283 22.1734 26.1299 30 12.0284 14.0214 16.2494 18.7753 21.6913 25.1401 29.3611 30 12.9044 14.9688 17.2766 19.8929 22.9133 26.4856 30 13.93 16.1354 18.601 21.3961 24.6229 28.4394 30 14.9969 17.1642 19.5871 22.334 25.505 29.2555 30 15.8333 17.6083 19.5926 21.8422 24.4392 27.5107 30 16.7216 18.7984 21.12 23.752 26.7905 30 17.7733 20.2026 22.9184 25.9974 29.5517 30 18.8684 21.2081 23.8237 26.7889 30 20.0379 21.9691 24.128 26.5755 29.401 30 21.0891 23.1901 25.5389 28.2016 30 22.3305 24.1337 26.1495 28.4348 30 23.5891 25.4091 27.4436 29.7501 30 24.9252 27.311 29.978 30 26.5489 28.6305 30 27.8277 29.6261 30 29.0083 30 2.57531 2.62311 3.35111 4.00246 4.8163 5.5588 6.28373 7.01534 7.72466 8.48978 9.32509 10.0283 10.9589 11.687 12.6183 13.5441 14.4259 15.4813 16.4574 17.4091 18.4024 19.3849 20.3485 21.4515 22.5924 23.6323 24.6973 25.8419 27.1291 28.2804 29.5077 30 9.70652 11.6715 13.8682 16.3586 19.2336 22.6339 26.7956 30 10.5603 12.8588 15.4284 18.3416 21.7046 25.6822 30 11.3262 13.2672 15.4371 17.8972 20.7371 24.096 28.207 30 12.2859 14.719 17.4391 20.5228 24.0826 28.2931 30 13.1643 15.4993 18.1097 21.0691 24.4855 28.5262 30 14.0244 16.2573 18.7533 21.5831 24.8499 28.7137 30 14.8952 16.863 19.0627 21.5566 24.4355 27.8406 30 15.7421 17.8476 20.2014 22.8699 25.9505 29.5941 30 16.6585 18.6311 20.8363 23.3364 26.2226 29.6362 30 17.6625 19.6231 21.8148 24.2996 27.168 30 18.5107 20.4466 22.6107 25.0642 27.8966 30 19.6375 21.8322 24.2857 27.0672 30 20.5226 22.9454 25.6538 28.7243 30 21.6592 24.1804 26.9988 30 22.7944 24.7506 26.9374 29.4166 30 23.8806 26.5962 29.632 30 25.1874 27.3316 29.7286 30 26.4025 28.4235 30 27.5936 29.5323 30 28.8437 30 3.10276 3.14841 3.9405 4.73441 5.42453 6.2748 7.06418 7.98492 8.83193 9.74706 10.6393 11.636 12.4948 13.5364 14.6109 15.4613 16.5351 17.6037 18.6555 19.8663 21.0193 22.2482 23.4673 24.4274 25.6217 26.9684 28.1257 29.3699 30 13.2864 15.3577 17.6732 20.2983 23.3287 26.913 30 14.2511 16.5798 19.183 22.1343 25.5413 29.5709 30 15.2213 17.2016 19.4153 21.925 24.8223 28.249 30 16.0674 17.6881 19.4998 21.5538 23.9249 26.7294 30 17.1134 19.2017 21.5363 24.1831 27.2386 30 18.088 20.1881 22.5358 25.1974 28.27 30 19.2293 21.3854 23.7958 26.5285 29.6832 30 20.2835 22.4823 24.9404 27.7272 30 21.4273 23.477 25.7684 28.3661 30 22.5474 25.057 27.8625 30 23.8046 26.1079 28.6827 30 24.893 27.3049 30 26.2195 28.5867 30 27.5958 29.7461 30 28.6908 30 3.5286 3.58819 4.54235 5.42583 6.2967 7.17767 8.19913 9.3284 10.3281 11.4092 12.4632 13.5505 14.7423 15.7194 16.9183 17.9186 19.2426 20.3899 21.5842 22.8794 24.2063 25.509 26.6372 28.1218 29.4451 30 13.0508 15.1972 17.5965 20.3167 23.457 27.1711 30 14.1802 16.4278 18.9403 21.7888 25.0771 28.9664 30 15.2291 17.4889 20.0151 22.8791 26.1854 30 16.266 18.5985 21.2059 24.162 27.5745 30 17.3181 19.2471 21.4036 23.8483 26.6706 30 18.542 20.6315 22.9675 25.6157 28.6729 30 19.9002 21.7 23.7119 25.9929 28.626 30 21.1073 23.0436 25.2083 27.6623 30 22.4176 24.7598 27.3783 30 23.7003 25.9871 28.5436 30 25.0289 26.7655 28.7069 30 26.492 28.9386 30 27.6967 30 29.1817 30 3.99672 4.04752 4.87859 5.72507 6.69346 7.59676 8.39476 9.49733 10.4347 11.341 12.4263 13.3173 14.0964 15.0859 16.3526 17.3148 18.266 19.4581 20.672 21.7961 22.9189 23.9648 25.2702 26.4548 27.7302 28.9883 30 13.4151 15.9662 18.8181 22.0514 25.7839 30 14.4028 16.7163 19.3026 22.2346 25.6195 29.6229 30 15.4117 17.2575 19.321 21.6603 24.3609 27.555 30 16.5697 19.0911 21.9098 25.1053 28.7943 30 17.6535 20.2371 23.1253 26.3997 30 18.614 21.0496 23.7725 26.8594 30 19.9458 22.2183 24.7589 27.6391 30 21.0824 23.3437 25.8716 28.7375 30 22.1855 24.6422 27.3885 30 23.5116 25.6151 27.9665 30 24.6048 27.0263 29.7334 30 25.5641 27.6284 29.9362 30 26.7869 29.1992 30 28.36 30 29.5609 30 4.44679 4.49319 5.18276 5.83956 6.59607 7.24658 8.11758 8.94191 9.86895 10.7049 11.502 12.1905 13.1441 14.1838 15.1365 16.0705 17.0228 17.876 18.8464 20.0768 21.0062 22.0716 23.0336 24.2302 25.3167 26.6424 27.9668 29.0978 30 11.5083 13.5957 15.9291 18.5746 21.6285 25.2406 29.6614 30 12.3128 14.5733 17.1004 19.9653 23.2726 27.1843 30 13.0809 15.3262 17.8363 20.682 23.9671 27.8526 30 13.9679 15.9821 18.2337 20.7864 23.7332 27.2186 30 14.7327 16.7474 18.9997 21.5531 24.5008 27.9871 30 15.7598 18.0627 20.6371 23.5558 26.9252 30 16.735 18.6634 20.8192 23.2631 26.0845 29.4215 30 17.8357 19.6849 21.7522 24.0959 26.8015 30 18.8318 20.7258 22.8431 25.2435 28.0145 30 19.7849 22.1123 24.7141 27.6638 30 20.6107 22.3806 24.3592 26.6023 29.1918 30 21.7588 23.857 26.2025 28.8616 30 23.0161 25.1115 27.454 30 24.1736 26.2308 28.5306 30 25.3132 27.3259 29.5759 30 26.4807 28.4553 30 27.5315 29.5899 30 28.7321 30 4.93213 4.9729 5.66771 6.45515 7.15726 7.76536 8.54744 9.3581 9.98918 10.7928 11.4858 12.2471 13.1216 13.9109 14.6858 15.4281 16.3695 17.3031 18.3643 19.2889 20.2171 21.3903 22.3823 23.3364 24.4084 25.4566 26.5641 27.7699 28.8353 30 11.1881 13.4814 16.0451 18.9515 22.3067 26.2751 30 11.9911 14.2937 16.8678 19.7862 23.1551 27.1397 30 12.9035 14.9934 17.3297 19.9784 23.036 26.6525 30 13.7193 15.9438 18.4306 21.2499 24.5045 28.3539 30 14.4276 16.4753 18.7643 21.3594 24.3552 27.8986 30 15.341 17.4399 19.7862 22.4462 25.517 29.149 30 16.2908 19.0184 22.0676 25.5246 29.5153 30 17.0323 18.9252 21.0413 23.4403 26.2098 29.4854 30 17.9793 20.0061 22.2718 24.8405 27.8058 30 18.7984 21.1234 23.7226 26.6693 30 19.701 21.5896 23.7009 26.0946 28.8578 30 20.7416 23.1332 25.8068 28.8378 30 21.6843 23.9382 26.4578 29.3143 30 22.6131 24.6181 26.8596 29.4008 30 23.5059 25.6285 28.0014 30 24.6426 26.8968 29.4167 30 25.7752 27.8324 30 27.0689 29.1985 30 28.2019 30 29.3449 30 5.4494 5.49279 6.27044 7.19488 8.11742 9.12548 10.015 10.9845 11.9593 13.2014 14.1631 15.3449 16.2602 17.3014 18.3003 19.2698 20.619 21.9491 23.0729 24.0809 25.2596 26.4886 27.9266 29.2419 30 14.5697 16.6463 18.9677 21.5996 24.6378 28.2313 30 15.4829 17.3987 19.5405 21.9685 24.7715 28.0868 30 16.5714 18.5035 20.6634 23.1121 25.9389 29.2823 30 17.6609 19.8796 22.36 25.1719 28.4181 30 18.855 20.8427 23.0649 25.5841 28.4923 30 19.912 22.1395 24.6295 27.4525 30 21.0676 23.2878 25.7698 28.5836 30 22.2334 24.5824 27.2083 30 23.7247 25.9881 28.5183 30 24.8837 26.7486 28.8335 30 26.3137 28.4104 30 27.4256 29.5868 30 28.6951 30 29.918 30 5.90619 5.95551 6.88755 7.75617 8.59059 9.54211 10.597 11.3363 12.2354 13.0699 13.8488 14.9936 15.8406 16.7391 17.7394 18.9089 20.0276 21.0151 21.928 23.037 24.1214 25.1681 26.3549 27.5939 28.9819 30 14.475 16.407 18.5668 21.0154 23.8421 27.1853 30 15.5785 18.2534 21.2438 24.634 28.5476 30 16.6102 18.4857 20.5822 22.9591 25.7031 28.9484 30 17.6045 19.4774 21.5711 23.9448 26.685 29.9259 30 18.7422 21.1088 23.7544 26.7538 30 20.0085 22.4245 25.1254 28.1874 30 20.899 23.0156 25.3817 28.0642 30 21.9857 24.2509 26.7832 29.6541 30 22.9978 25.2134 27.6901 30 23.9458 26.3806 29.1025 30 25.345 27.8583 30 26.3846 28.6954 30 27.4919 29.4407 30 28.73 30 6.4422 6.4871 7.16171 8.02101 8.89253 9.77134 10.4791 11.3933 12.2645 13.1564 14.1238 14.8912 15.7999 16.7508 17.6917 18.7291 19.8597 20.8037 21.878 22.8462 23.9049 24.8679 25.9092 27.0761 28.2233 29.6426 30 13.482 15.4087 17.5625 20.0044 22.8233 26.1573 30 14.2626 16.4346 18.8627 21.6154 24.7932 28.5517 30 15.2595 16.9757 18.8942 21.0692 23.5801 26.5499 30 16.2734 18.2458 20.4507 22.9504 25.8361 29.2492 30 17.2989 19.6321 22.2403 25.1973 28.6109 30 18.1272 20.2054 22.5287 25.1626 28.2033 30 19.2 21.237 23.5141 26.0958 29.0761 30 20.2257 22.3774 24.7828 27.5098 30 21.2792 23.3576 25.6811 28.3153 30 22.4259 24.7068 27.2566 30 23.3387 25.6408 28.2143 30 24.423 26.5755 28.9817 30 25.5621 27.4939 29.6535 30 26.6935 28.8822 30 27.9463 30 29.3181 30 6.96159 7.01697 7.81339 8.57475 9.36128 10.0639 10.8569 11.7155 12.5377 13.486 14.5039 15.3263 16.3143 17.1985 18.1216 18.9748 20.1045 21.1534 22.1433 23.0128 24.1733 25.1726 26.2648 27.652 28.9419 30 17.1002 18.9243 20.9634 23.2753 25.944 29.1006 30 18.0651 20.0439 22.256 24.7639 27.6591 30 18.9904 21.0659 23.386 26.0164 29.053 30 19.9493 21.9212 24.1255 26.6246 29.5096 30 20.8087 22.8749 25.1848 27.8035 30 21.7815 23.9154 26.3008 29.0051 30 22.8387 25.2427 27.9302 30 23.8549 25.7272 27.8203 30 25.0315 27.2457 29.721 30 26.3003 28.3697 30 27.3298 29.3488 30 28.572 30 29.6888 30 7.50995 7.55277 8.31229 9.10749 9.88586 10.6354 11.3016 11.9371 12.8116 13.5279 14.4395 15.3635 16.1972 17.1031 17.9182 18.853 19.8919 20.9131 21.8209 22.9113 23.9033 24.9131 25.9987 26.9969 27.8387 29.0265 30 14.845 16.7378 18.8538 21.2527 24.0221 27.2975 30 15.7386 18.0715 20.6795 23.6363 27.0496 30 16.677 18.8315 21.2401 23.9706 27.1229 30 17.5985 19.7153 22.0816 24.7644 27.8614 30 18.4887 21.0414 23.895 27.1302 30 19.2821 21.2489 23.4476 25.9403 28.8179 30 20.0412 22.2416 24.7014 27.4901 30 21.0891 23.0466 25.2349 27.7158 30 21.9506 24.0635 26.4256 29.1034 30 23.0508 24.9043 26.9762 29.3252 30 24.1709 26.424 28.9428 30 25.1857 27.0789 29.1955 30 26.2931 28.0396 29.992 30 27.2937 29.3815 30 28.4464 30 29.734 30 8.0765 8.12085 8.94462 9.6072 10.4053 11.3387 12.2049 13.0153 13.787 14.6408 15.5839 16.5143 17.3961 18.2196 19.0889 20.1719 20.9861 22.0731 22.9853 24.0796 24.9711 25.9403 27.0851 28.2731 29.4897 30 16.1265 18.4319 21.0092 23.9311 27.3041 30 17.0967 19.1746 21.4976 24.1312 27.1714 30 17.8792 20.1885 22.7701 25.6969 29.0757 30 18.8243 21.0702 23.5809 26.4273 29.7133 30 19.9332 22.0759 24.4713 27.187 30 20.9658 23.2785 25.8639 28.7951 30 21.9351 24.1704 26.6694 29.5024 30 22.861 25.6076 28.6782 30 23.8888 26.105 28.5825 30 25.0285 27.087 29.3882 30 26.1572 28.0916 30 27.2313 29.3236 30 28.2382 30 29.3052 30 8.64082 8.68489 9.44961 10.312 11.1215 12.0636 12.9253 13.9668 14.777 15.6849 16.4625 17.2889 18.2407 19.2089 20.2642 21.1727 22.236 23.3034 24.4643 25.6283 26.8895 28.0713 29.2389 30 17.5124 19.6252 21.9872 24.665 27.7563 30 18.4171 20.6482 23.1424 25.9701 29.2344 30 19.4402 21.584 23.9805 26.6974 29.8339 30 20.4035 22.3491 24.5242 26.99 29.8367 30 21.528 23.622 25.9629 28.6167 30 22.5601 24.6768 27.0431 29.7258 30 23.812 26.0163 28.4806 30 24.7894 27.1217 29.7291 30 25.8883 27.8922 30 26.8326 29.0181 30 27.8396 30 29.0037 30 9.21802 9.27127 10.0162 10.8496 11.5716 12.3932 13.0601 13.9482 14.6863 15.4056 16.1599 17.2103 18.0452 19.0015 20.0012 20.93 21.8479 22.7675 23.7609 24.8421 25.9976 27.0381 28.2437 29.4671 30 18.0245 20.1696 22.5676 25.2863 28.4248 30 18.918 20.8938 23.1025 25.6066 28.4973 30 19.9211 22.2998 24.9589 27.9735 30 20.7929 22.7541 24.9466 27.4323 30 21.7882 24.0596 26.5988 29.4775 30 22.5988 24.609 26.8562 29.4038 30 23.682 26.2403 29.1002 30 24.5856 26.6313 28.9182 30 25.4693 27.5291 29.8318 30 26.3991 28.7655 30 27.6997 29.695 30 28.7382 30 29.9333 30 9.84728 9.89758 10.612 11.2301 11.8699 12.6429 13.4849 14.119 14.9526 15.7979 16.7268 17.629 18.4419 19.2991 20.1782 21.0183 21.918 22.9818 23.6925 24.6681 25.6168 26.72 27.9203 28.8917 29.9592 30 17.4362 19.4266 21.6516 24.1742 27.0863 30 18.2773 20.7202 23.4511 26.5471 30 19.0069 21.1808 23.611 26.3662 29.5468 30 19.764 21.6769 23.8153 26.2396 29.0383 30 20.6812 22.5037 24.541 26.8508 29.5172 30 21.6837 23.6764 25.904 28.4294 30 22.4409 24.564 26.9374 29.6282 30 23.4394 25.8673 28.5815 30 24.4556 26.9466 29.7313 30 25.5766 28.1273 30 26.6699 28.5631 30 27.659 29.9564 30 28.7059 30 29.7841 30 10.4383 10.4869 11.222 11.9609 12.6557 13.4395 14.1786 14.9418 15.7769 16.4568 17.2711 18.0873 19.0805 20.0755 20.9658 22.0257 22.9571 24.1659 25.0459 25.9601 27.0489 28.0563 29.136 30 18.2302 20.3266 22.6701 25.3269 28.3941 30 19.0998 20.9979 23.1198 25.5253 28.3024 30 19.9765 21.7599 23.7535 26.0137 28.623 30 20.8031 23.0568 25.5761 28.4323 30 21.7386 24.1642 26.8758 29.95 30 22.6236 24.5884 26.7849 29.2751 30 23.5402 25.7427 28.2048 30 24.5468 26.5624 28.8156 30 25.3692 27.3916 29.6524 30 26.3574 28.4752 30 27.3517 29.3476 30 28.5667 30 29.7899 30 10.9386 10.9888 11.9514 12.7398 13.6645 14.4804 15.2614 16.0169 16.8389 17.5295 18.5207 19.4249 20.2685 21.1749 22.1228 22.996 23.9183 24.7851 25.9048 27.0934 28.1947 29.3348 30 18.1953 20.1659 22.3688 24.8663 27.7494 30 19.3125 21.5654 24.0839 26.9392 30 20.23 22.6427 25.3399 28.3978 30 21.3095 23.978 26.9611 30 22.2646 24.6192 27.2513 30 23.1816 25.2221 27.5032 30 24.0711 26.3995 29.0024 30 25.0417 27.346 29.9219 30 25.8595 28.1193 30 27.0368 29.1602 30 28.1148 30 29.1241 30 11.4832 11.5313 12.3475 13.2581 14.0388 14.822 15.7455 16.679 17.6505 18.5278 19.3408 20.2644 21.2345 22.2666 23.3105 24.3764 25.3794 26.1699 27.0688 28.1053 29.0637 30 19.2764 21.3019 23.5663 26.1334 29.097 30 20.232 22.2256 24.4541 26.9807 29.8974 30 21.3016 23.3156 25.5671 28.1196 30 22.2212 24.4206 26.8793 29.6667 30 23.1464 25.4722 28.0723 30 24.2408 26.3462 28.6998 30 25.351 27.1089 29.0741 30 26.5106 28.6972 30 27.5616 29.8653 30 28.5389 30 29.6531 30 12.0768 12.1336 12.9098 13.8393 14.6346 15.5594 16.4997 17.4789 18.3925 19.4055 20.2879 21.2579 22.3292 23.1259 24.0859 25.3185 26.4423 27.587 28.6556 29.7029 30 21.8241 24.0126 26.4591 29.2328 30 22.7511 24.8199 27.1326 29.7546 30 23.8647 26.215 28.8425 30 24.8205 27.0367 29.5141 30 25.9356 27.782 29.8461 30 27.0733 29.1065 30 28.2624 30 29.3761 30 12.626 12.673 13.3574 14.0647 14.8275 15.568 16.2627 17.1339 17.9387 18.7115 19.6739 20.567 21.2924 22.1224 23.123 24.0039 24.9035 25.8147 26.7352 27.8582 28.7522 29.7943 30 20.4713 22.5526 24.8793 27.5171 30 21.2841 23.2722 25.4947 28.0144 30 22.1265 24.292 26.7128 29.4573 30 23.0378 25.3138 27.8582 30 23.9254 26.2436 28.8352 30 24.7606 26.625 28.7091 30 25.8118 27.772 29.9634 30 26.7866 28.738 30 27.7261 30 28.9009 30 29.9961 30 13.2203 13.2652 14.0628 14.789 15.548 16.3003 17.0299 17.8426 18.619 19.3999 20.2744 21.2856 22.1675 22.9652 23.9035 24.807 25.5663 26.6102 27.5745 28.4195 29.1965 30 20.6795 22.7682 25.1032 27.7505 30 21.6169 23.6924 26.0126 28.643 30 22.4729 24.568 26.9101 29.5653 30 23.3701 25.3941 27.6569 30 24.262 26.142 28.2437 30 25.1297 27.0554 29.2082 30 26.0993 28.1558 30 27.0286 29.5106 30 27.9665 29.9933 30 29.0206 30 13.8752 13.943 14.9445 15.7917 16.7167 17.6538 18.7581 19.6901 20.7513 21.7763 22.6682 23.7787 24.9756 26.1693 27.1246 28.3845 29.4424 30 25.5971 27.6058 29.8513 30 26.8102 29.0786 30 27.8398 30 28.9674 30 14.527 14.586 15.5881 16.5623 17.7172 18.5658 19.4131 20.4044 21.397 22.4035 23.4715 24.5241 25.4928 26.5258 27.6978 28.867 30 25.7604 27.8454 30 26.9745 29.0719 30 28.1591 30 29.569 30 15.1528 15.2048 15.8813 16.6417 17.2543 18.0291 18.9551 19.7042 20.4747 21.2706 22.184 23.0466 23.9496 24.8929 25.6421 26.6011 27.5635 28.6161 29.6045 30 23.0592 24.9739 27.1143 29.5408 30 23.8602 25.9138 28.2095 30 24.7629 26.5026 28.4475 30 25.4922 27.5639 29.8798 30 26.4173 28.709 30 27.5269 29.6638 30 28.4275 30 29.3571 30 15.6904 15.734 16.5432 17.2864 18.1914 18.9187 19.7118 20.4966 21.2494 22.0276 22.8692 23.7612 24.7011 25.718 26.8591 27.9623 29.1069 30 23.1622 25.1961 27.4698 30 24.1076 26.0706 28.2652 30 24.9782 26.9448 29.1434 30 26.0416 28.2911 30 26.8987 28.7707 30 27.8361 29.9811 30 28.7665 30 29.6615 30 16.3463 16.3901 17.1365 17.9478 18.6014 19.36 19.9921 20.6776 21.3868 22.1844 22.9829 23.6914 24.5564 25.4686 26.3953 27.351 28.2552 29.1404 30 22.4076 24.9632 27.8201 30 23.2705 25.21 27.3782 29.8364 30 24.2111 26.2071 28.4384 30 24.9711 27.2594 29.8175 30 25.8555 28.543 30 26.5946 28.6355 30 27.3982 29.6971 30 28.2321 30 29.1727 30 16.9861 17.0386 17.7694 18.6199 19.41 20.2385 20.9808 21.915 22.7042 23.4863 24.349 25.2173 26.1206 27.1892 28.0122 29.0461 29.9903 30 22.8995 25.1583 27.6834 30 23.7301 26.0044 28.5468 30 24.6989 26.6614 28.8554 30 25.6012 27.7135 30 26.5497 28.5877 30 27.4017 29.2402 30 28.4769 30 29.3877 30 17.6405 17.6906 18.4256 19.0441 19.8346 20.6904 21.3807 22.2528 23.0985 23.9903 24.9704 25.9013 26.7279 27.5423 28.4177 29.4231 30 24.4798 26.7604 29.3099 30 25.3292 27.5756 30 26.0454 28.1258 30 26.963 28.8563 30 27.9593 30 28.765 30 29.7857 30 18.229 18.2739 19.0438 19.8119 20.6079 21.4417 22.2389 23.0969 23.9414 24.7852 25.6292 26.4439 27.2637 28.166 29.178 30 25.5105 27.5167 29.7594 30 26.4147 28.5255 30 27.3195 29.6893 30 28.2602 30 29.2488 30 19.0287 19.0786 19.823 20.5954 21.4016 22.2392 22.9795 23.8214 24.7258 25.5075 26.4236 27.2976 28.2236 29.1215 29.9609 30 28.6787 30 29.5855 30 19.7226 19.7749 20.5809 21.409 22.2803 23.2348 24.0883 24.8688 25.8128 26.5981 27.5981 28.3688 29.3604 30 27.1575 29.3313 30 28.0899 30 29.0502 30 20.3964 20.4476 21.4081 22.4915 23.4839 24.4833 25.4107 26.6533 27.6135 28.799 29.9421 30 21.0485 21.0968 21.706 22.46 23.2438 23.9002 24.6823 25.4762 26.3666 27.163 27.9163 28.8012 29.5727 30 27.5884 29.9157 30 28.2923 30 29.1657 30 21.8068 21.8554 22.639 23.5593 24.3947 25.2172 26.0276 26.9374 28.0093 28.9159 29.9512 30 29.1388 30 22.4886 22.539 23.3159 24.1565 24.9712 25.998 26.8895 27.8169 28.9057 29.7564 30 23.3072 23.3574 24.2615 25.123 25.9385 26.7541 27.7164 28.6895 29.6318 30 23.8932 23.9343 24.6617 25.3341 25.9478 26.7306 27.4876 28.1505 28.9512 29.7996 30 24.5606 24.6096 25.4644 26.3913 27.4706 28.2572 29.1618 30 25.2852 25.3238 25.8939 26.6384 27.4672 28.2126 28.9781 29.7651 30 26.1004 26.1632 26.9533 27.7946 28.6658 29.529 30 26.7084 26.7582 27.4963 28.1449 28.7572 29.5871 30 27.4339 27.4745 28.1623 28.984 29.8348 30 28.3477 28.408 29.3509 30 29.0139 29.0696 29.8131 30 29.6171 29.6553 30 
</DataArray>

</PointData>
<CellData Scalars=" CellData">
<DataArray type="Float32" Name="radius" NumberOfComponents="1" format="ascii" >
0.046455 0.025858 0.0234573 0.0237972 0.0228927 0.0184214 0.0200674 0.0177904 0.022374 0.0191906 0.0209903 0.0217849 0.0204988 0.021559 0.0217428 0.0184699 0.0174306 0.0189574 0.0202623 0.0197965 0.0287951 0.0217519 0.0225014 0.0250926 0.0193012 0.0208534 0.0210294 0.0161626 0.0210337 0.0181745 0.0202723 0.0207261 0.0193844 0.016103 0.020132 0.0201849 0.0192467 0.0202697 0.0179678 0.0207012 0.0215946 0.0294569 0.0177559 0.0184693 0.0180706 0.0192111 0.0209114 0.0208144 0.0202829 0.0194895 0.0214159 0.0198957 0.0199508 0.0206493 0.0238081 0.0188176 0.0187185 0.0181877 0.0179235 0.0293743 0.0204318 0.0234532 0.0177695 0.023637 0.0237284 0.0174725 0.0160019 0.0201642 0.0208458 0.0186456 0.0173238 0.0228992 0.0186847 0.0214041 0.0220665 0.0190323 0.0224436 0.0311556 0.0212929 0.017882 0.0197277 0.0195936 0.0197648 0.0173397 0.0199189 0.0223085 0.0197805 0.0201089 0.0192336 0.0192031 0.0209321 0.0171493 0.0233661 0.0195067 0.0186157 0.028812 0.020436 0.0234499 0.0207765 0.0186585 0.020012 0.0229694 0.017377 0.0191298 0.0186494 0.0229272 0.0190955 0.0204451 0.0205111 0.0194883 0.0185635 0.0222356 0.020834 0.0208559 0.0196669 0.0217101 0.02533 0.0208548 0.0258188 0.0179141 0.0238973 0.0174973 0.0205348 0.0201259 0.0190566 0.0217759 0.0189197 0.0168791 0.0209476 0.0193018 0.0234264 0.0168598 0.0250647 0.0249773 0.0211228 0.0166549 0.0196422 0.0239174 0.0184507 0.018136 0.0164915 0.0184008 0.0164244 0.0209444 0.0189331 0.0201618 0.0214858 0.0234761 0.0214047 0.0203581 0.0171164 0.0179302 0.0176583 0.0191095 0.0154826 0.0214035 0.0170495 0.0237505 0.0194605 0.0222992 0.0183224 0.0170868 0.0235249 0.02198 0.0170007 0.0207015 0.0234353 0.0223274 0.0219811 0.0221228 0.019954 0.020267 0.016561 0.0188265 0.0179394 0.0196884 0.0171236 0.0210045 0.0187986 0.0224534 0.0193764 0.0202456 0.0278401 0.0181853 0.0188031 0.0243553 0.0196861 0.0218983 0.020763 0.0206941 0.0199035 0.0197291 0.0193255 0.0199169 0.0189462 0.0157998 0.0197642 0.0223909 0.018841 0.0193592 0.0201462 0.0201235 0.0203305 0.0306039 0.0190731 0.0207159 0.0223084 0.0215837 0.0251951 0.0164357 0.0180321 0.0172044 0.0176826 0.0220291 0.0183267 0.0202643 0.0185718 0.0208213 0.0275319 0.0213477 0.0208879 0.0201093 0.021567 0.0218701 0.0196555 0.023388 0.0206746 0.0214851 0.0225235 0.0197977 0.0169967 0.0211919 0.0213964 0.0284815 0.0205072 0.0204751 0.0200703 0.0201268 0.0188895 0.0201533 0.0194086 0.0219086 0.0199308 0.017698 0.0201961 0.0180579 0.0209315 0.019748 0.0221195 0.0177221 0.0283738 0.020334 0.0168911 0.0211294 0.0209254 0.0210795 0.0232473 0.0198085 0.0208433 0.0201393 0.0198747 0.0219423 0.0230912 0.0207146 0.0307665 0.0197225 0.0186865 0.022274 0.0188983 0.0199236 0.0218606 0.0203137 0.0191683 0.0205804 0.0216238 0.0193036 0.0199085 0.0190409 0.0194235 0.0213806 0.0209577 0.0262928 0.0216084 0.0215546 0.0212717 0.0178894 0.0211873 0.0217415 0.0197054 0.0184072 0.0207148 0.0157971 0.0227641 0.0218762 0.0191553 0.022105 0.0262343 0.0208844 0.0226234 0.0195511 0.0210777 0.0180867 0.0177258 0.0186551 0.0206786 0.0212246 0.0189956 0.0222056 0.022465 0.0249232 0.0213534 0.0209745 0.0198379 0.0199708 0.0244604 0.0195988 0.0214169 0.0196896 0.0221644 0.0197587 0.0225672 0.021976 0.0223934 0.027258 0.0223889 0.0207755 0.0221979 0.0229979 0.0194343 0.0201001 0.0211527 0.0217579 0.0205172 0.0184925 0.0208802 0.0192656 0.0204083 0.0215959 0.0291227 0.0185233 0.0187206 0.0237791 0.0220331 0.017777 0.0167476 0.0233714 0.0228668 0.0195612 0.0202898 0.0189661 0.01954 0.0179382 0.0253512 0.0216906 0.020272 0.0197463 0.0188668 0.019877 0.0203621 0.01778 0.0153596 0.023391 0.0217205 0.0182741 0.0226565 0.0235758 0.0169999 0.0198079 0.0201362 0.0189722 0.0201662 0.0162127 0.0208435 0.0196695 0.0211472 0.0187712 0.0193275 0.0261462 0.0202721 0.0190814 0.016395 0.0208265 0.0199504 0.0206032 0.0180649 0.0196277 0.0318439 0.0169796 0.0222639 0.0185794 0.0197803 0.0203277 0.0195536 0.0233281 0.0190004 0.0240977 0.0200478 0.0200167 0.0312926 0.0206719 0.0213497 0.0196305 0.0209667 0.0200647 0.0180716 0.0199224 0.0204239 0.0221772 0.021059 0.0250679 0.016923 0.0225105 0.0214065 0.0199989 0.0303504 0.0184896 0.017029 0.0235533 0.0208529 0.0237133 0.0187345 0.0205431 0.0183506 0.0192329 0.0212545 0.0208389 0.0256567 0.0219957 0.0240463 0.0183837 0.0198057 0.02252 0.0157317 0.0196678 0.0159837 0.0231899 0.0243119 0.0304936 0.0221337 0.0158952 0.0196586 0.0234551 0.0216592 0.0212434 0.0163454 0.0199651 0.0184809 0.0271101 0.0204739 0.0200201 0.0187087 0.0209534 0.0226237 0.025406 0.0131993 0.0188527 0.0280728 0.0190088 0.0197815 0.0180067 0.0195333 0.0222457 0.0221159 0.0216486 0.027007 0.0142993 0.0231506 0.0201693 0.0242525 0.0191732 0.0287968 0.0181796 0.0216474 0.0234711 0.0199855 0.0180995 0.0188082 0.0307752 0.0292792 0.0143208 0.0175974 0.0202467 0.025441 0.0218333 0.0265183 0.0255904 0.0235542 0.026344 0.0227147 0.0263589 0.0284437 0.0260161 0.0261719 0.0279144 0.0258381 
</DataArray>
<DataArray type="Float32" Name="subType" NumberOfComponents="1" format="ascii" >
1 2 3 3 3 3 3 3 3 3 3 3 3 3 3 3 3 3 3 3 2 3 3 3 3 3 3 3 3 3 3 3 3 3 3 3 3 3 3 3 3 2 3 3 3 3 3 3 3 3 3 3 3 3 3 3 3 3 3 2 3 3 3 3 3 3 3 3 3 3 3 3 3 3 3 3 3 2 3 3 3 3 3 3 3 3 3 3 3 3 3 3 3 3 3 2 3 3 3 3 3 3 3 3 3 3 3 3 3 3 3 3 3 3 3 3 2 3 3 3 3 3 3 3 3 3 3 3 3 3 3 3 2 3 3 3 3 3 3 3 3 3 3 3 3 3 3 2 3 3 3 3 3 3 3 3 3 3 3 3 3 3 3 2 3 3 3 3 3 3 3 3 3 3 3 3 3 3 3 3 3 3 2 3 3 3 3 3 3 3 3 3 3 3 3 3 3 3 3 3 3 3 3 2 3 3 3 3 3 3 3 3 3 3 3 3 3 3 2 3 3 3 3 3 3 3 3 3 3 3 3 3 3 2 3 3 3 3 3 3 3 3 3 3 3 3 3 3 3 3 2 3 3 3 3 3 3 3 3 3 3 3 3 3 2 3 3 3 3 3 3 3 3 3 3 3 3 3 3 3 3 2 3 3 3 3 3 3 3 3 3 3 3 3 3 3 2 3 3 3 3 3 3 3 3 3 3 3 3 2 3 3 3 3 3 3 3 3 3 3 3 3 3 2 3 3 3 3 3 3 3 3 3 3 3 3 3 3 2 3 3 3 3 3 3 3 3 3 3 3 3 3 2 3 3 3 3 3 3 3 3 3 3 3 3 2 3 3 3 3 3 3 3 3 3 3 3 2 3 3 3 3 3 3 3 3 2 3 3 3 3 3 3 3 3 3 3 3 2 3 3 3 3 3 3 3 3 3 3 2 3 3 3 3 2 3 3 3 3 2 3 3 3 3 3 3 3 3 2 3 3 3 3 3 3 3 3 2 3 3 3 3 3 3 3 3 3 2 3 3 3 3 3 3 3 3 2 3 3 3 3 3 3 3 2 3 3 3 3 3 2 3 3 2 3 3 3 2 2 3 3 3 2 3 2 2 2 2 2 2 2 2 2 2 2 
</DataArray>
<DataArray type="Float32" Name="creationTime" NumberOfComponents="1" format="ascii" >