<?xml version="1.0"?><VTKFile type="PolyData" version="0.1" byte_order="LittleEndian">
<PolyData>
<Piece NumberOfLines="1535" NumberOfPoints="11768">
<PointData Scalars=" PointData">
<DataArray type="Float32" Name="time" NumberOfComponents="1" format="ascii" >
0 0.460797 0.696248 0.919349 1.05497 1.19176 1.3721 1.49148 1.53703 1.62416 1.79784 1.99338 2.12939 2.13796 2.2963 2.52894 2.71759 2.88158 2.93348 3.03106 3.21221 3.25895 3.31259 3.46581 3.64956 3.81548 3.87716 4.04356 4.1435 4.22961 4.3749 4.56617 4.73199 4.79412 4.97028 5.19303 5.47303 5.66398 5.78172 5.88314 6.0136 6.15389 6.22586 6.39082 6.54724 6.64024 6.78664 6.95989 7.07219 7.19561 7.30851 7.55973 7.80569 7.97375 8.17224 8.19711 8.41619 8.59063 8.81763 9.01961 9.15722 9.3825 9.49572 9.65301 9.84592 10.12 10.1773 10.2785 10.492 10.5853 10.77 10.9535 11.0632 11.231 11.421 11.6408 11.8113 11.9102 12.1259 12.2784 12.4138 12.655 12.9036 13.0463 13.1191 13.4707 13.6776 13.8208 13.9638 14.042 14.3058 14.4651 14.7684 15 5.0154 6.72477 6.82568 7.1865 7.55359 7.63524 7.88933 8.19908 8.26451 8.3313 8.63106 8.8403 9.11949 9.40086 9.87317 10.3176 10.6751 11.2176 15 12.6732 14.6985 15 12.8948 14.8723 15 13.7176 15 14.6105 15 14.8178 15 5.29627 6.24085 6.39623 6.63792 6.82681 6.98165 7.33572 7.7479 7.97526 8.22595 8.48652 8.85199 9.02134 9.4019 9.89069 10.2641 10.8502 11.2255 15 9.37522 10.0987 10.6307 10.755 11.656 12.4065 15 9.64236 10.3876 10.9799 11.3002 11.7621 12.2892 15 10.0684 10.5769 11.2614 11.8082 12.3559 13.2376 15 10.4112 12.7701 13.9141 14.4146 15 10.699 13.5096 13.97 14.4942 14.8017 15 11.3835 13.0714 13.4992 14.0047 14.639 15 12.2339 15 12.7323 14.031 14.4241 15 13.3105 15 13.9485 15 14.9208 15 5.56286 7.27291 7.57177 7.78146 8.15512 8.47555 8.83254 9.01521 9.36386 9.61176 9.64802 9.99297 10.2494 10.7282 11.1368 11.4018 11.8578 12.21 15 5.72514 6.0059 6.17219 6.50607 6.70897 7.01767 7.05262 7.09424 7.36609 7.59216 7.90445 8.15757 8.33005 8.45459 8.68781 9.18787 9.32048 15 12.2929 15 13.0088 14.0367 14.3937 14.7495 15 13.4544 15 14.4055 14.5507 15 5.889 6.04725 6.23991 6.45629 6.58283 6.76223 6.84158 7.12231 7.30496 7.47672 7.65448 7.7743 8.09451 8.26827 8.47988 8.77387 9.14511 15 11.6732 12.5972 12.9272 13.5661 13.8508 14.7268 15 12.0685 13.0502 13.4342 13.6687 14.0672 14.4062 15 12.5705 14.2161 14.5089 14.7978 15 13.1652 15 13.53 14.8949 15 14.0719 15 14.3217 15 6.10527 6.32987 6.45712 6.62256 6.81288 6.96562 7.25567 7.28981 7.37416 7.76641 7.93027 8.19861 8.23107 8.44321 8.65385 8.99032 9.1996 15 13.0171 15 13.6387 15 14.0074 15 14.507 15 6.2486 9.04512 9.3859 9.5904 9.79016 10.1528 10.6862 10.9767 11.7025 12.2582 12.4906 12.8935 13.0603 13.5552 13.9131 14.6868 15 6.30333 6.36176 6.49323 6.4962 6.65569 6.87834 7.12277 7.41484 7.59639 7.95042 8.19365 8.57389 8.93379 9.25028 9.8126 10.5032 10.85 15 7.20762 8.62996 9.07592 9.34606 9.71127 10.3393 15 7.28436 8.13257 8.6376 9.05362 9.73595 10.2108 15 13.7582 15 7.4586 10.4055 11.1058 12.0658 12.7207 13.8816 15 7.46256 8.79165 9.08303 9.51679 10.0581 10.4847 15 14.4367 15 7.67711 11.3784 12.2455 12.9715 14.0543 14.1312 15 7.98283 8.95995 9.3083 9.91103 10.3986 10.8237 15 8.32775 11.8033 12.8961 13.7627 14.0822 15 8.75457 10.0747 10.3478 10.8288 11.6429 12.1489 15 9.0291 10.3974 10.687 11.0701 11.6981 12.4868 15 9.58854 11.6211 12.4689 13.1595 13.9338 14.7745 15 9.99472 12.4351 12.7485 13.4339 14.2991 14.6497 15 10.6745 12.8865 13.4503 13.7157 14.3974 14.8724 15 11.3832 12.4223 13.4121 14.2789 14.5016 15 12.0778 12.922 13.2245 13.6456 13.9533 14.4961 15 13.5693 15 6.40807 6.53017 6.63089 6.74186 6.86789 6.91388 7.10008 7.23626 7.2872 7.40337 7.65592 7.72926 7.91859 8.17401 8.35192 8.51667 8.65764 14.9633 15 13.031 14.023 14.9739 15 13.4125 14.0606 14.5145 15 13.7404 15 14.117 15 14.5665 15 14.7369 15 6.61705 7.69939 7.83345 8.03942 8.12087 8.295 8.37491 8.55103 8.8027 8.9082 9.20535 9.31185 9.51907 9.59482 9.81682 10.0187 10.1739 10.4074 15 13.6974 15 14.0654 15 14.6604 15 14.9068 15 6.85267 8.46887 8.80215 8.95414 9.29653 9.67293 9.79 10.1312 10.3656 10.6221 10.7552 11.1856 11.6569 11.8399 12.05 12.3096 12.6701 13.3211 15 14.1651 14.5858 14.9613 15 14.8784 15 7.01678 8.82968 9.00423 9.22381 9.57837 9.70469 9.95857 10.1242 10.2222 10.5264 10.744 11.0083 11.2124 11.6932 12.2561 12.3839 12.8287 13.2577 15 7.02713 8.90468 9.1133 9.26708 9.4605 9.60916 9.89914 10.3258 10.4959 10.6886 11.0214 11.0214 11.2014 11.3601 11.6717 11.8547 12.3108 12.4594 15 13.3328 14.4916 15 13.785 15 14.1309 15 14.583 15 14.9447 15 7.21842 7.35325 7.59477 7.75723 8.02115 8.23385 8.43761 8.61852 8.7308 8.95152 9.28477 9.57038 9.93356 10.2029 10.6247 10.8684 11.1987 15 13.706 15 14.0285 14.7723 15 14.6276 15 7.49992 8.04511 8.14338 8.2062 8.28923 8.41715 8.48316 8.63157 8.85048 9.04022 9.23262 9.51001 9.55681 9.67549 9.78955 10.1449 10.398 10.5382 15 12.5464 15 12.792 13.991 14.9027 15 12.9529 13.7983 14.3286 14.9488 14.9489 15 13.1705 15 13.518 15 13.7035 15 14.1377 15 14.8285 15 7.72858 12.6014 12.9768 13.4433 13.9341 14.5138 14.9569 15 7.92763 9.94907 10.3094 10.6505 10.9423 11.149 11.4521 11.6836 12.0857 12.2483 12.5201 13.1945 13.5991 13.9411 14.5027 14.9266 15 7.99069 10.0612 10.0949 10.3371 10.655 10.7999 10.8687 11.1294 11.3013 11.6257 11.8819 12.1709 12.4685 12.5507 12.7825 13.0806 13.3889 13.71 15 8.10932 10.2277 10.4607 10.8012 11.1602 11.5032 11.7028 11.8928 12.2005 12.5263 12.775 13.2904 13.6273 14.0664 14.5148 14.7191 15 8.32978 12.062 12.1213 12.4912 12.758 13.2376 13.4101 13.8006 14.0593 14.5538 14.8807 15 8.38673 8.93309 9.05435 9.1928 9.47067 9.62147 9.83005 10.1 10.3362 10.4351 10.7534 10.951 11.2386 11.5275 11.7255 11.8143 12.0147 12.3636 15 13.9859 15 14.264 15 14.5906 15 8.4521 10.2674 10.5726 10.8478 11.1894 11.5317 11.9205 12.2664 12.5132 12.6307 13.0656 13.4615 13.8946 14.138 14.5552 14.8792 15 8.63901 9.51305 9.72181 10.1016 10.3215 10.7702 11.0256 11.2679 11.4916 11.7795 12.3139 12.7058 13.0913 13.484 13.805 14.1273 14.8479 15 14.9572 15 8.86347 9.33999 9.58695 9.86838 10.0389 10.0611 10.2477 10.4444 10.5059 10.7105 10.9178 10.9178 11.2978 11.5511 11.8005 12.0048 12.2712 12.4596 15 9.06647 10.957 11.1639 11.3415 11.4793 11.7547 11.8755 12.0278 12.1344 12.5013 12.8013 13.0703 13.3338 13.4956 13.7775 14.0069 14.4659 14.8547 15 14.7008 15 9.142 10.2128 10.3493 10.6647 10.9891 11.1449 11.2688 11.5233 11.6332 11.9635 12.0187 12.2847 12.7685 13.1153 13.5838 14.0624 14.4863 14.7554 15 9.34597 9.60388 9.71988 9.80956 10.0537 10.2754 10.539 10.539 10.8825 10.9179 11.1081 11.2957 11.4102 11.6972 11.9766 12.0931 12.1932 15 9.46863 9.80265 9.82189 9.96438 10.2148 10.4154 10.6173 10.7829 10.9445 11.1135 11.4059 11.5825 11.6917 12.0004 12.3604 12.5437 12.5437 12.7155 15 12.9859 14.9858 15 13.025 13.7611 14.12 14.5924 15 13.3201 15 13.8651 15 14.3298 15 14.827 15 9.57439 9.64468 9.78037 9.89505 9.97035 10.0864 10.1441 10.2076 10.2991 10.4799 10.5438 10.6973 10.9353 11.0855 11.2068 11.4094 11.7469 15 11.3087 13.6088 14.6737 15 11.4385 12.3193 12.5263 12.8839 13.3475 14.0861 15 11.697 13.6782 14.1896 14.5477 14.8428 15 11.9246 13.4742 13.645 13.8294 14.0509 14.9438 15 12.0792 14.1578 14.4936 15 12.3261 14.9472 15 12.4534 14.3548 14.8349 15 12.5971 15 12.8115 15 13.265 14.7791 15 13.4365 15 13.8772 15 14.6659 15 9.75302 10.8905 11.3073 11.4841 11.761 11.946 12.4086 12.9513 13.1936 13.2071 13.421 13.7725 14.0278 14.2163 14.604 14.8023 15 9.98855 11.5115 11.9098 12.1758 12.3846 12.803 13.2445 13.5799 14.2218 14.7083 15 13.8257 14.8635 15 14.378 15 14.7537 15 10.1931 12.2638 12.5483 12.6497 12.7622 13 13.4771 13.8517 14.0618 14.3775 14.6284 14.9709 15 10.2698 10.5991 10.8486 10.9163 11.301 11.5228 11.8093 12.0381 12.3625 12.6934 12.9178 13.2733 13.4206 13.8616 14.2352 14.6133 14.8777 15 10.4875 13.4693 13.7561 14.273 14.6927 15 10.7633 10.9748 11.1114 11.2701 11.5263 11.6917 11.9738 12.0928 12.303 12.4647 12.7012 13.0053 13.3068 13.3898 13.5457 13.9067 14.312 15 11.1108 13.3868 13.6482 13.8782 14.0284 14.1537 14.2957 14.4638 14.6587 14.9029 15 11.3483 13.9382 14.1964 14.4662 14.8169 14.8169 15 11.4949 11.808 11.9371 12.1047 12.2831 12.4619 12.6151 12.8204 13.067 13.2405 13.4955 13.735 13.951 14.1554 14.3663 14.5641 14.8731 15 14.8469 15 11.6214 12.4863 12.7011 12.7014 13.0276 13.1631 13.3491 13.6213 13.883 14.2207 14.3416 14.6288 14.7884 15 11.7842 13.8841 14.1405 14.4706 14.7926 15 11.9596 14.9583 15 12.0496 12.3646 12.6423 12.7946 13.0455 13.334 13.3564 13.7295 13.9548 14.2309 14.4946 14.9007 15 12.2563 12.6222 12.657 12.7369 12.8247 13.0059 13.1294 13.2198 13.2583 13.5375 13.7919 13.8642 13.9284 14.1373 14.3003 14.4395 14.6301 14.6759 15 12.4525 13.2873 13.465 13.6518 13.8342 13.9848 14.2905 14.643 14.6869 14.8321 14.9882 15 12.5693 13.7152 13.8489 14.0264 14.0841 14.1997 14.3899 14.5768 14.9433 15 12.7535 13.5819 13.7339 13.934 14.2299 14.5782 14.704 14.9244 15 12.9717 14.486 14.6159 14.7775 15 13.1133 13.2341 13.3057 13.4376 13.5513 13.7009 13.8585 13.9823 14.1444 14.3423 14.4731 14.622 14.768 15 13.2692 14.829 14.9875 15 13.412 13.5747 13.7217 13.8614 13.941 14.053 14.2361 14.3141 14.453 14.7412 14.9765 15 13.7302 14.8004 15 14.0426 15 14.2565 14.3512 14.5652 14.7064 14.92 15 14.5096 15 14.5414 15 14.8215 15 0 0.630393 1.00266 1.28911 1.72957 2.16029 2.50136 2.81499 2.91443 3.26439 3.57111 3.87394 4.04825 4.52751 4.80382 4.95988 5.45853 5.79896 6.18924 6.66133 7.0518 7.55527 7.69133 8.19773 8.42572 8.88968 8.97338 9.32103 9.81603 10.1621 10.4645 11.0721 11.62 12.038 12.0419 12.6666 12.9839 13.2906 13.7881 14.1245 14.4733 14.9953 15 0 0.65446 0.773661 0.960762 1.18592 1.37158 1.52023 1.6943 1.81504 1.86403 2.02848 2.23502 2.31678 2.39261 2.56843 2.65095 2.80465 2.91155 2.98271 3.14888 3.21701 3.34347 3.48331 3.56586 3.76978 3.93325 4.07958 4.29496 4.44593 4.66956 4.86595 5.01453 5.15535 5.28199 5.46622 5.54291 5.62041 5.76053 5.86329 5.99397 6.12879 6.29247 6.36764 6.58384 6.69231 6.8824 7.05148 7.19475 7.32908 7.4441 7.67258 7.82341 8.00096 8.19901 8.52615 8.59711 8.72115 8.8586 9.01336 9.18159 9.36184 9.54052 9.76618 9.95809 10.1904 10.336 10.5208 10.5666 10.9041 11.0481 11.2958 11.5316 11.6859 12.0036 12.218 12.4385 12.6678 12.8863 13.016 13.2077 13.425 13.6258 14.0327 14.0516 14.2441 14.3614 14.494 14.6483 14.929 15 5.24953 7.70359 7.93746 8.23376 8.44318 8.69414 9.01877 9.34384 9.729 10.0846 10.4609 10.7122 11.0868 11.6472 11.9848 12.7225 13.0905 13.4861 15 9.57106 12.905 13.6635 14.3049 14.7892 15 9.91113 14.7575 14.9729 15 10.3526 12.4078 12.931 13.7464 14.397 15 10.6726 11.9561 12.3574 13.0773 13.4699 13.9613 15 11.0655 15 11.591 11.8508 12.1567 12.6268 12.8518 15 12.1394 13.5399 13.6177 14.1671 14.7854 15 12.823 15 13.493 15 14.2517 14.9454 15 14.7927 15 5.38937 6.48002 6.70837 6.94435 6.99983 7.15302 7.51825 7.7142 7.89997 8.17561 8.50179 8.73896 9.07063 9.25569 9.50862 9.79556 10.1671 10.5053 15 12.5699 14.0501 14.5389 14.9246 15 13.1059 14.5657 14.9957 15 13.6849 15 13.8251 15 14.221 15 5.60907 6.88946 7.26246 7.3924 7.71763 8.12715 8.5788 8.9032 9.38888 9.69756 10.0656 10.1359 10.4498 10.8811 11.4517 11.7802 12.2647 12.4872 15 11.9913 13.5624 14.855 15 12.7183 14.7228 15 12.9795 15 13.6533 15 14.5475 15 5.87378 8.4888 8.90296 9.10496 9.42787 9.87522 10.0689 10.2618 11.1129 11.9403 12.2582 12.7228 13.4349 13.9289 14.4058 15 6.09234 7.62823 7.8113 8.03241 8.13305 8.33389 8.55235 8.81131 8.92386 9.02884 9.20699 9.42411 9.75495 10.0692 10.2268 10.6642 10.8181 11.0803 15 12.2208 14.2997 14.4968 14.7128 15 12.6287 14.2614 14.7331 15 13.1435 15 13.3868 15 13.891 14.5638 14.6578 14.9326 15 14.4713 15 6.26751 6.97791 7.10828 7.2843 7.47183 7.62691 7.88448 8.17048 8.29538 8.46695 8.61874 8.80807 8.98682 9.11133 9.2192 9.45896 9.86471 10.1595 15 10.4551 15 10.7238 12.1448 12.2603 12.3869 12.9978 13.5089 15 11.0994 13.7005 14.3186 15 11.5174 12.4309 12.7194 13.0185 13.2427 13.5824 15 11.8788 13.3992 13.8011 14.3618 15 12.5159 13.737 14.0537 14.6835 15 13.2883 15 13.6518 15 14.1824 15 14.6871 15 6.47284 9.62011 9.803 10.1057 10.4646 10.8012 11.1517 11.3315 11.5051 11.859 12.3338 12.6467 13.1094 13.551 13.7598 14.044 14.299 14.8342 15 6.61539 6.76305 6.92098 7.18294 7.19052 7.56514 7.84019 8.11165 8.51675 8.72947 8.97924 9.25716 9.48208 9.99085 10.3003 10.7118 11.2137 15 10.9846 11.5522 11.9024 12.0069 12.3405 12.6007 15 11.2732 13.0126 13.1505 13.6475 14.1445 14.2053 15 11.5888 12.3324 12.8301 13.2922 13.735 14.2647 15 12.1299 15 12.1459 15 12.9638 15 13.6021 15 14.2692 15 6.67325 7.12685 7.34557 7.55048 7.88885 8.14975 8.45321 8.64237 8.9233 9.11125 9.5112 9.86045 10.3724 10.8791 11.1638 11.4973 11.9781 11.9782 15 8.60494 10.4452 10.5651 10.9273 11.6689 12.0048 15 8.91945 10.2116 10.852 11.8939 12.3045 12.8721 15 9.22093 11.6209 12.3748 13.1001 13.9075 14.8458 15 9.73504 11.3218 11.8011 12.3349 12.7806 13.409 15 10.1472 10.8986 11.5016 11.7617 12.2181 12.823 15 10.6469 12.5547 12.8047 13.207 13.6322 14.1383 15 10.9709 14.4498 15 11.4728 13.7943 14.7387 15 11.8244 12.4471 12.6807 12.873 13.0172 13.5966 15 12.6237 13.3981 13.6561 13.8611 14.0756 14.3473 15 13.3933 14.8965 15 14.6929 15 6.86765 6.99116 7.12148 7.2774 7.4233 7.5141 7.62437 7.69404 7.87397 8.09482 8.09483 8.23933 8.27325 8.41535 8.5312 8.80592 9.25349 15 8.58317 10.562 11.3584 11.591 12.1109 12.7556 15 8.80473 10.8387 11.4098 11.9449 12.2697 13.292 15 9.04676 13.7418 15 9.34893 11.6979 12.5757 13.4717 14.4808 14.5259 15 9.64596 10.7739 12.1069 13.2583 14.3673 15 9.83876 10.6639 11.3319 11.6777 12.8179 15 10.0822 11.1368 11.8381 12.7018 13.0373 14.2807 15 10.2418 13.0564 13.4568 14.4004 15 10.6781 11.403 11.9132 12.1275 12.4956 12.6512 15 11.272 13.4067 14.6264 15 11.272 14.0875 14.8266 15 11.7059 14.3712 15 11.8142 15 12.2998 14.9207 15 12.7422 14.8339 15 14.047 14.5865 14.9945 15 7.11208 7.27726 7.47246 7.56411 7.71182 7.80399 7.95356 8.2535 8.4109 8.52322 8.64438 8.86224 9.15216 9.41938 9.66045 9.86918 10.1494 15 12.6797 13.6069 13.8717 14.3236 14.8173 15 13.0981 14.3399 14.5331 14.9519 15 13.6163 13.9 14.3804 14.5922 15 13.8695 15 14.2923 14.6406 15 14.5662 15 7.20893 7.72271 7.8969 8.16175 8.26687 8.52327 8.65901 8.77927 8.9639 9.08297 9.28067 9.50763 9.68284 9.85778 10.1646 10.467 10.6669 10.7911 15 13.4274 15 13.8718 15 14.5875 15 14.8867 15 7.2988 7.51871 7.73767 7.98722 8.22735 8.35811 8.50297 8.77906 8.90903 9.29776 9.53552 9.84167 10.1973 10.7144 11.0905 11.3696 11.6481 15 14.3282 15 14.8564 15 7.50734 8.22532 8.44152 8.72751 8.89993 9.11355 9.47631 9.72987 10.142 10.1927 10.5176 10.6229 10.821 11.0695 11.2111 11.7939 12.3841 12.3841 15 11.7934 13.0087 13.6085 13.779 14.2726 14.92 15 12.2045 13.6746 14.3622 14.6595 15 12.7715 13.9185 14.2079 14.7611 15 13.1276 15 13.5856 15 14.4128 15 7.6053 8.68874 8.8469 9.09615 9.31751 9.51297 9.6305 9.93038 10.243 10.3373 10.7972 11.0927 11.5525 11.8156 12.374 13.0192 13.085 13.5209 15 13.3088 15 13.6191 15 14.1225 15 14.5858 15 7.78791 8.9276 13.0365 15 7.91502 8.24482 8.41139 8.41139 8.62396 8.81776 9.03477 9.30782 9.54199 9.84485 10.1478 10.2566 10.5898 10.955 11.0763 11.2241 11.5997 11.9377 15 14.9874 15 7.99967 9.43627 9.50744 9.63195 9.8148 9.93787 10.1686 10.278 10.4509 10.6859 10.8641 11.1729 11.3351 11.3351 11.3835 11.5525 11.7902 12.122 15 8.19753 9.05783 9.31291 9.44806 9.64371 9.87243 10.0899 10.2614 10.2834 10.3716 10.5873 10.8431 11.135 11.3072 11.4306 11.6626 11.9151 12.1769 15 13.4211 15 14.0059 15 14.331 15 14.8229 15 8.27871 8.33507 8.56247 8.81124 8.9232 9.15348 9.38365 9.47561 9.79533 10.0256 10.2774 10.4539 10.7519 11.0433 11.3309 11.663 11.853 12.2235 15 14.6272 15 8.42949 9.8689 10.0078 10.3212 10.8518 11.0937 11.2917 11.5983 11.948 12.2714 13.199 13.202 13.7407 14.3462 14.9563 15 12.6893 14.5313 14.8115 15 12.9025 14.0194 14.4518 14.9824 15 13.3929 14.7483 14.9477 15 14.2553 15 14.6635 15 8.59638 9.72232 9.90591 10.1669 10.2999 10.3489 10.5105 10.687 11.1028 11.3149 11.414 11.7085 11.8739 12.1788 12.5476 12.9193 13.2648 13.6009 15 14.8982 15 8.69497 9.53806 9.85449 10.1563 10.4033 10.6774 10.8962 11.034 11.2228 11.5893 12.0588 12.2271 12.2599 12.4686 12.9344 13.1399 13.6892 14.1366 15 13.119 14.9284 15 13.7068 15 14.2939 14.7102 15 14.7967 15 8.93875 9.07828 9.29374 9.45109 9.6904 9.8426 10.1831 10.4674 10.6963 10.9572 11.4661 11.7876 12.0678 12.1756 12.4128 12.7289 13.1202 15 13.6677 15 13.9576 15 14.419 15 14.7673 14.7997 15 9.13442 9.3478 9.53357 9.72475 9.87922 10.0372 10.2326 10.4492 10.5919 10.8278 11.0108 11.1125 11.1125 11.5738 11.7901 12.1249 12.4708 15 14.3719 15 14.8805 15 9.30975 9.65044 9.85461 10.0883 10.186 10.313 10.5023 10.7638 11.039 11.2609 11.6124 11.7924 12.031 12.2901 12.5892 13.0202 13.3413 15 9.56815 10.5207 10.765 10.9326 11.041 11.2794 11.4862 11.4978 11.6578 11.8996 12.1418 12.4184 12.6518 12.9373 13.0804 13.3017 13.5009 13.9533 15 14.3044 15 14.8149 15 9.7495 10.043 10.2974 10.3959 10.6536 10.7243 10.8461 11.1257 11.4841 11.8441 12.1669 12.7311 13.0094 13.5608 13.7225 13.9893 14.5688 14.772 15 10.0185 11.8618 12.2952 12.7255 13.1985 13.4743 13.8868 14.2196 14.7618 15 10.2551 10.4516 10.7237 11.1691 11.4472 12.0184 12.4056 12.5909 12.6506 12.9754 13.5742 13.8809 14.1461 14.5937 15 10.4343 10.5456 10.6521 10.7507 10.8768 10.9609 11.0289 11.2218 11.3994 11.5281 11.677 11.7942 11.9607 12.1986 12.3602 12.5316 12.7025 15 13.9797 15 14.2433 14.778 15 14.5051 15 14.7562 15 10.6043 11.3221 11.4999 11.6452 11.7742 11.9814 12.1373 12.4337 12.6709 12.9663 13.134 13.3239 13.5354 13.9328 14.1554 14.462 14.7886 15 10.7573 10.9556 11.1604 11.297 11.5182 11.6401 11.8524 11.9604 12.2462 12.4818 12.6304 12.8584 13.0605 13.2198 13.3567 13.6336 13.8715 15 13.4276 14.2369 14.8014 14.9638 15 13.8072 15 14.2173 15 14.5028 15 14.9876 15 10.9802 11.7257 11.8712 12.1466 12.3193 12.518 12.6542 12.9776 13.122 13.2994 13.5636 13.6989 13.8971 14.0489 14.1761 14.3793 14.5449 14.666 15 11.0731 11.9026 12.1385 12.4238 12.6589 12.6771 12.9014 13.1828 13.2999 13.516 13.6227 13.7437 14.11 14.2427 14.7299 15 11.167 11.4044 11.506 11.6675 11.9177 12.1287 12.5537 12.6981 12.7739 12.9738 13.0936 13.3465 13.6367 13.8943 14.2498 14.6325 14.9415 15 11.3369 12.1979 12.3253 12.6042 12.8566 12.9387 13.1554 13.4478 13.6663 13.8508 14.1206 14.3595 14.5366 14.8241 15 11.4617 12.2114 12.354 12.5226 12.8241 13.0168 13.3137 13.5243 13.8287 14.1618 14.5127 14.7967 15 11.6204 11.8319 12.092 12.4424 12.698 13.0134 13.3063 13.5185 13.8581 14.0116 14.4067 14.6948 15 14.5905 15 14.9451 15 11.7844 11.9391 12.1009 12.2471 12.4044 12.6004 12.7831 12.8934 13.1129 13.2569 13.5363 13.5814 13.6529 13.76 13.9684 14.3479 14.5467 15 14.3108 15 14.612 15 14.9397 15 11.9836 12.3511 12.5275 12.8294 13.3163 13.3163 13.7794 14.3555 14.7245 15 12.0752 12.3902 12.6174 12.7872 12.8986 13.1024 13.336 13.5334 13.6329 13.8234 14.1798 14.401 14.6507 14.9755 15 13.9581 15 14.3071 14.8616 15 14.5754 15 14.7555 15 12.339 13.2541 13.4016 13.613 13.8567 13.9379 14.1423 14.2255 14.4963 14.6947 14.9439 15 12.4714 14.1543 14.2991 14.5803 14.8365 15 12.7039 13.4656 13.7174 13.9027 14.3578 14.6845 15 12.9109 13.466 13.6169 13.8368 14.0507 14.1961 14.3915 14.5848 14.6287 14.6863 14.9277 15 13.0866 13.2102 13.414 13.5374 13.6768 13.9709 14.0945 14.1692 14.3747 14.678 14.9058 15 13.2514 15 13.3927 15 13.6738 13.7151 13.7789 13.9694 14.1496 14.3197 14.4831 14.6051 14.8489 15 13.8596 13.9936 14.1316 14.2886 14.398 14.5454 14.7443 14.8476 15 14.0787 15 14.3234 14.4691 14.7304 14.8984 15 14.7285 15 14.8165 15 14.9704 15 0 0.594242 0.677103 0.773462 0.83304 0.833043 0.941652 1.00251 1.06801 1.17595 1.2512 1.35846 1.44329 1.52294 1.56696 1.65138 1.74206 1.78827 1.83842 1.91208 2.04872 2.16515 2.28134 2.41748 2.54214 2.69301 2.79825 2.91414 3.08275 3.14116 3.2226 3.32198 3.4322 3.49678 3.59363 3.7171 3.74494 3.76532 3.87045 3.98945 4.04907 4.08369 4.24359 4.31731 4.42069 4.54251 4.69301 4.7563 4.8671 5.03832 5.12736 5.22009 5.3311 5.52762 5.63381 5.70776 5.80338 5.91201 6.03677 6.11386 6.2455 6.37213 6.46276 6.5468 6.74949 6.79904 6.92636 7.12831 7.25712 7.35801 7.51409 7.70358 7.84135 7.95746 8.02883 8.11165 8.24313 8.41215 8.61733 8.79342 8.90718 9.06929 9.23871 9.35225 9.48722 9.55098 9.61791 9.75598 9.87373 9.93023 10.111 10.2912 10.4823 10.643 10.777 10.9485 11.0849 11.1806 11.3152 11.5013 11.5802 11.7582 11.9048 12.0945 12.2279 12.3321 12.4521 12.5069 12.741 12.9064 13.0041 13.1697 13.2133 13.3849 13.4925 13.6877 13.7027 13.8362 13.9428 14.0644 14.1818 14.3638 14.4925 14.4974 14.5998 14.8076 14.9934 15 5.85556 6.06425 6.24067 6.44857 6.51467 6.60495 6.91943 7.06983 7.09046 7.22618 7.40991 7.56262 7.78078 8.04003 8.27241 8.49483 8.61489 15 8.69102 11.3115 11.8643 12.7418 13.0123 13.7118 15 9.11742 11.7799 12.1951 12.8604 13.1887 14.1123 15 9.49682 10.43 10.8575 11.507 12.0822 12.6008 15 9.96998 10.4569 10.7898 11.2369 12.0007 12.7348 15 10.1271 14.0341 14.0922 14.3953 15 10.3476 12.2735 12.3413 12.6431 13.2338 13.8071 15 11.177 12.2447 12.8037 13.5705 13.9295 14.6749 15 11.6147 12.1197 12.5379 12.986 13.5197 14.5042 15 11.6772 15 12.1054 13.8317 14.7995 15 12.7393 14.5919 15 13.326 14.8375 15 14.292 15 5.96296 6.08294 6.20556 6.28908 6.42508 6.64156 6.70727 6.7666 6.91894 7.07563 7.22935 7.54529 7.74346 7.94442 8.13776 8.39781 8.48442 15 8.94533 10.1256 10.8572 11.6127 12.0517 13.0974 15 9.20016 10.8452 11.2297 11.6755 12.2102 12.6748 15 9.46983 11.6186 12.4021 12.8571 13.2012 13.5809 15 9.65933 11.0976 11.4902 12.2826 12.9856 13.8091 15 14.3603 15 9.97912 12.5781 13.3953 13.8868 14.9394 15 10.521 13.112 13.4771 13.852 14.1608 14.8211 15 10.6946 13.4997 14.1901 14.5701 15 10.8555 11.9497 12.7333 13.1604 13.6664 13.8353 15 11.2883 14.8852 15 11.7679 13.7788 14.0743 14.8872 15 12.2797 15 13.5064 15 14.452 15 6.08801 6.70576 6.85548 7.21321 7.37074 7.55426 7.77668 8.00822 8.24541 8.44022 8.54285 8.73118 8.80262 9.15963 9.26159 9.53104 9.86537 10.179 15 12.7418 15 13.112 15 14.0497 15 14.4899 15 6.16542 7.15096 7.26488 7.50042 7.60436 7.68245 7.83878 7.95689 8.03892 8.09651 8.36585 8.4623 8.64419 8.89315 9.19747 9.41776 9.67237 9.87965 15 11.8508 12.5133 13.0763 13.583 14.2342 14.9101 15 12.1299 15 12.7364 15 13.0183 14.4483 15 13.2364 15 13.6914 14.2639 14.7977 15 14.0532 15 14.3146 14.9216 15 14.5035 15 6.16542 6.84898 7.01964 7.25524 7.41585 7.7227 7.9425 8.14691 8.42408 8.55229 8.85187 9.35905 9.44688 9.81481 10.0597 10.3756 10.7439 11.063 15 12.0278 14.746 14.9262 15 12.3958 15 12.9222 13.6457 14.0471 14.1052 14.8656 15 13.2944 14.9564 15 14.0397 15 14.6051 15 6.30671 7.23436 7.91619 8.12856 8.42649 8.80407 9.45432 10.0732 10.8389 11.162 11.8828 12.6493 12.856 13.7575 14.5282 15 6.38598 6.60726 6.86859 7.06873 7.37007 7.66438 8.06434 8.24971 8.26379 8.64777 8.99427 9.29607 9.71822 10.293 10.8561 11.1662 11.2448 15 10.4565 13.7296 14.6069 15 10.8745 13.9861 15 11.3851 12.5208 12.9167 13.4861 13.6066 14.1342 15 11.79 12.4076 12.9574 13.0288 13.9978 14.9507 15 12.425 14.7044 15 13.0789 15 14.0311 15 14.5019 15 14.5385 15 6.47137 6.57654 6.72438 6.79734 6.93782 7.05108 7.16173 7.34063 7.43175 7.52918 7.77471 8.00639 8.17986 8.27206 8.55541 8.66301 8.78799 15 9.89907 12.921 13.4499 14.4524 15 10.1418 11.2555 11.8117 12.5984 13.9141 15 10.4973 11.7624 12.7624 14.4975 15 10.6795 12.0576 12.5868 13.2921 13.8894 14.5315 15 13.48 15 14.3721 15 11.0446 14.5079 15 11.3542 15 11.6716 14.7965 15 12.2213 12.7128 13.1256 13.5242 14.3032 14.6432 15 12.5214 13.2998 13.7451 14.3898 14.9117 15 12.8602 15 13.8148 14.4744 14.8054 15 15 14.9 15 6.61227 6.76249 6.94648 7.14954 7.36929 7.58165 7.65767 7.86854 8.14322 8.14323 8.25246 8.52214 8.81173 9.20591 9.5128 9.83528 9.99062 15 8.53471 12.9874 13.8554 14.1183 15 8.78669 12.3342 13.6126 14.3133 15 9.10501 10.1587 10.5615 11.1124 11.3978 12.0308 15 9.47021 12.3446 13.054 13.7126 14.2808 15 9.88428 11.4269 12.0458 12.7947 13.5397 13.9314 15 10.3062 15 10.4631 12.0516 12.5276 12.8939 13.2678 13.7967 15 10.9172 12.166 12.7127 12.8545 13.456 14.5188 15 11.5575 14.5115 15 11.5575 15 11.8306 13.6055 13.966 14.8427 15 12.5618 13.3522 13.7057 14.2519 14.4976 15 13.465 15 6.71064 6.79351 7.02448 7.28043 7.42297 7.52059 7.71329 7.9431 8.08938 8.24028 8.64195 8.79633 9.07661 9.19505 9.52657 9.81669 10.1545 15 9.69236 11.4005 11.744 12.0782 12.439 13.0971 15 9.84919 13.4777 14.5035 15 10.3 13.8913 15 10.8261 12.6604 13.2716 13.3274 14.1739 14.5675 15 11.1329 13.1286 14.1752 15 11.3494 12.5554 12.9318 13.3994 13.667 14.4526 15 11.7937 13.9159 14.2883 15 12.3573 14.6392 15 12.7384 13.7811 14.4753 15 13.1528 14.9084 15 14.3885 15 14.93 15 6.85105 9.53787 10.0351 10.3233 10.7737 11.2684 11.6951 12.2911 12.8627 13.9116 14.1957 14.7004 15 6.96227 10.695 11.2419 11.5648 12.0175 12.3206 12.7937 13.2757 13.604 14.0399 14.433 15 7.06681 7.48274 7.99713 8.44658 8.7409 9.18346 10.0003 10.5399 10.6708 11.3369 12.2008 12.7735 13.6896 14.3614 14.6325 15 7.12464 9.68161 9.82581 9.96968 10.2783 10.5587 10.7892 11.1574 11.19 11.3335 11.6353 12.0197 12.1997 12.554 12.9123 13.1744 13.3252 13.5796 15 7.23568 8.75933 8.93485 9.22418 9.38079 9.4057 9.61446 9.99546 10.118 10.3761 10.8112 11.104 11.5841 11.8828 11.9546 12.4356 12.8261 13.428 15 7.3551 7.57554 7.69311 7.8204 7.97251 8.12213 8.25082 8.43826 8.5572 8.74196 8.95817 9.06316 9.30061 9.35783 9.54893 9.68629 9.89348 10.2503 15 11.3202 13.806 14.3513 15 11.5862 15 11.8842 14.0144 14.3795 14.8346 15 12.2555 13.9715 14.6186 15 12.6388 15 12.9848 15 13.52 15 13.8818 14.2927 14.4406 15 14.4848 15 7.41601 7.52912 7.65475 7.91719 8.04147 8.11279 8.28699 8.38815 8.50148 8.68696 8.85111 9.05387 9.29716 9.44826 9.77486 10.1215 10.2134 15 10.8259 12.0451 12.8038 13.7659 14.4392 15 11.0683 12.0656 12.516 13.1246 13.6006 14.2287 15 11.3461 14.4502 15 11.959 15 12.2669 13.8682 14.1261 14.666 15 12.4495 15 12.9153 15 13.2004 13.9348 14.307 14.9102 15 13.5342 15 14.1188 15 14.6837 15 7.48218 9.451 9.73182 9.82299 10.4007 10.7263 10.8216 11.2559 11.6656 12.1269 12.3418 12.9786 13.4442 14.2631 15 13.1166 15 13.5559 15 13.7004 15 14.6383 15 7.57946 9.05729 9.20758 9.37924 9.48116 9.8445 9.9983 10.1378 10.5209 10.8053 11.1119 11.2985 11.4542 11.6292 11.8391 12.308 12.662 12.7958 15 11.9527 14.0855 14.4129 14.9665 15 12.2282 15 12.5519 13.9025 14.5834 14.6751 15 12.7491 14.4341 14.6849 14.685 15 13.4861 15 13.8163 15 14.1267 15 7.76022 10.479 10.6268 11.1021 11.3996 11.6486 11.8227 12.3026 12.5448 13.1646 13.6565 13.8972 14.2765 14.4861 15 7.91455 8.08079 8.1962 8.408 8.80762 9.18877 9.58267 9.92193 10.113 10.5215 11.1193 11.3493 11.7969 12.0975 12.2084 12.3886 12.9535 15 9.8521 10.3394 10.7342 11.3998 11.7334 12.1097 15 10.1028 12.6964 12.9411 13.8222 14.515 14.7306 15 10.2796 11.96 12.6993 13.6628 14.7437 15 10.61 14.8551 15 11.2573 12.8152 13.0779 13.2762 14.1077 14.9278 15 11.9088 13.4638 14.2074 15 12.6247 14.1192 14.4289 14.8192 15 13.2837 14.2634 14.3957 14.6938 14.9352 15 13.6757 15 14.5752 15 8.06885 11.235 11.3021 11.6398 12.0356 12.3775 12.5337 12.9172 13.2867 13.7623 13.9653 14.4795 14.7494 15 8.25002 9.8926 10.1551 10.3986 10.6979 11.0015 11.1417 11.2202 11.5539 11.6352 11.8453 12.047 12.3623 12.4593 12.7501 12.9939 13.3916 13.6175 15 8.41625 8.93021 9.03811 9.25752 9.38509 9.60685 9.81351 9.99942 10.2712 10.469 10.6121 10.7025 10.9301 11.2086 11.4062 11.7945 11.9329 12.3051 15 12.932 15 13.1604 14.7834 14.973 15 13.6414 15 13.9323 15 14.4603 14.9844 15 14.9813 15 8.61791 8.74752 8.91881 9.12019 9.26276 9.51533 9.76174 9.83553 10.0612 10.2552 10.4938 10.6659 10.8466 11.0066 11.2974 11.5512 11.8469 15 12.9583 15 13.2467 13.57 13.7311 14.0152 14.1599 14.6862 15 13.6411 14.0319 14.6688 15 14.1265 15 14.4861 15 8.75887 10.2364 10.4506 10.8392 11.0852 11.3735 11.8072 12.0639 12.5292 12.771 13.1172 13.5297 13.8886 14.3931 14.9826 15 12.9099 14.5408 15 13.2386 15 13.8511 14.8603 15 14.2503 15 14.7313 15 8.91439 10.3165 10.5084 10.8321 11.0706 11.2465 11.6209 11.9321 12.2077 12.533 12.8427 13.2126 13.4337 13.7597 14.4019 14.5253 15 9.14119 9.38638 9.63591 9.82381 9.99576 10.2731 10.5236 10.8041 11.1208 11.3539 11.7645 12.1667 12.441 12.9182 13.0121 13.6161 13.9396 15 10.7824 12.8744 13.4421 13.9645 14.1791 15 11.1447 12.944 13.6354 14.5126 15 11.5241 15 11.8176 15 12.0927 13.9393 14.5362 15 12.5512 13.0865 13.5981 14.2341 14.749 15 12.9827 15 13.4892 15 14.0956 15 14.5702 15 9.21991 12.4556 12.8298 12.975 13.3662 13.5837 13.8741 14.3588 14.6666 14.9612 15 9.3298 9.76408 9.99054 10.1746 10.3647 10.4307 10.6366 10.7376 10.876 11.1765 11.3893 11.558 11.8129 12.0449 12.3474 12.7665 13.2921 13.5597 15 14.1962 15 14.6773 15 9.46411 10.9304 11.1706 11.3458 11.4913 11.7708 11.9932 12.3224 12.487 12.8649 13.0184 13.253 13.4939 13.734 14.0286 14.1658 14.4855 14.9997 15 9.61334 10.2969 10.544 10.817 10.9624 11.1594 11.3478 11.6474 11.683 12.0128 12.2235 12.4366 12.6933 12.8991 13.1889 13.4514 13.7844 14.2299 15 9.70091 9.92165 9.98508 10.1188 10.3208 10.5776 10.6879 10.9051 11.0803 11.3742 11.5086 11.7417 11.8841 12.0816 12.2824 12.6405 12.9963 15 13.4718 15 13.9388 15 14.0772 15 14.3758 15 14.8461 15 9.83242 12.0051 12.1828 12.4577 12.5538 12.6823 12.8667 13.0142 13.2403 13.5696 13.7419 14.0861 14.3499 14.7028 14.9921 15 10.0004 10.0165 10.3543 10.6871 10.9949 11.1079 11.4803 11.798 12.2167 12.81 13.3744 13.9891 14.0003 14.2182 14.8233 15 12.4481 14.0651 14.7588 15 12.9498 15 13.4574 15 13.94 15 14.1206 15 14.7302 15 10.0383 10.1993 10.2889 10.3877 10.5643 10.6335 10.7635 10.8446 11.0353 11.2701 11.3348 11.5353 11.7292 11.902 12.1343 12.2083 12.5037 15 13.7306 15 14.1073 15 14.325 15 14.573 15 10.0661 10.9575 11.1497 11.3287 11.3836 11.4806 11.6436 11.7154 11.9516 12.1135 12.2613 12.4548 12.6623 12.8559 12.9999 13.2577 13.5713 13.7297 15 10.2096 10.2161 10.4381 10.71 10.8569 11.1161 11.4279 11.6296 11.7506 11.8994 12.0566 12.2316 12.4821 12.724 13.0279 13.5196 13.751 14.1617 15 10.3723 11.0009 11.1177 11.2091 11.3659 11.5293 11.6599 11.8309 12.074 12.1483 12.2619 12.3886 12.6333 12.8154 12.9415 13.1316 13.3537 13.6279 15 14.4993 15 14.758 15 14.9663 15 10.4539 10.856 10.9985 11.1782 11.2852 11.4637 11.6523 11.7861 11.8363 11.9912 12.0735 12.1186 12.1832 12.4082 12.6804 12.8787 13.1115 13.3051 15 10.5014 10.6196 10.8194 11.0004 11.196