<?xml version="1.0"?><VTKFile type="PolyData" version="0.1" byte_order="LittleEndian">
<PolyData>
<Piece NumberOfLines="1985" NumberOfPoints="17136">
<PointData Scalars=" PointData">
<DataArray type="Float32" Name="time" NumberOfComponents="1" format="ascii" >
0 0.0532813 0.501331 1.02641 1.49531 1.97507 2.52388 3.05079 3.4762 3.94383 4.39343 4.87825 5.39498 5.85127 6.3867 6.90552 7.45328 8.01919 8.58286 9.15941 9.78793 10.3782 10.8779 11.4219 12.0147 12.5633 13.1569 13.8109 14.4619 15.0869 15.6238 16.2789 16.9178 17.5713 18.1591 18.9576 19.6505 20.3233 20.9745 21.7317 22.4125 23.2298 23.8149 24.4814 25.2047 26.0187 26.6257 27.35 28.2622 28.9273 29.5295 30.2045 31.1643 31.9915 32.82 33.6388 34.5841 35.3427 36.3162 37.1561 38.2422 39.2479 40.178 41.3762 42.4302 43.4833 44.8112 46.0437 46.9484 48.0537 49.0662 50.2063 51.2283 52.5132 53.9129 55.3049 56.9305 58.2059 59.8281 61.3764 62.9282 64.4419 65 0.102265 0.157804 0.864931 1.70154 2.55126 3.25147 4.22099 5.04925 6.06519 7.03096 7.90738 8.88054 9.76307 10.8523 11.82 13.0223 14.0859 15.1926 16.2886 17.1587 18.1645 19.4426 20.5383 21.8108 22.9636 24.2943 25.3846 26.6574 28.2749 29.6767 31.232 32.7026 34.032 35.5678 37.291 38.7204 40.3692 41.8542 43.7831 45.6132 47.6781 49.7211 52.0114 54.1375 56.4531 58.7717 61.6079 64.3991 65 9.2461 11.5103 14.0415 16.9112 20.2239 24.1421 28.9375 35.1199 43.8335 58.7295 65 10.0892 12.146 14.4454 17.0521 20.0615 23.6207 27.9769 33.593 41.5084 55.04 65 11.0895 13.149 15.4513 18.0614 21.0746 24.6385 29.0003 34.6236 42.5492 56.0982 65 12.1088 14.2088 16.5564 19.2179 22.2903 25.9243 30.3719 36.1059 44.1874 58.003 65 12.9512 14.8574 16.9883 19.4041 22.1929 25.4914 29.5285 34.7331 42.0687 54.6089 65 14.1215 16.351 18.8433 21.6688 24.9306 28.7886 33.5103 39.5977 48.1773 62.8444 65 15.1249 17.1851 19.4883 22.0993 25.1136 28.6787 33.042 38.6673 46.5958 60.1495 65 16.3604 18.5382 20.9728 23.7329 26.9192 30.6878 35.3002 41.2466 49.6276 63.955 65 17.5397 19.8309 22.3923 25.2962 28.6485 32.6134 37.466 43.7221 52.5397 65 18.6142 20.8049 23.2538 26.0303 29.2354 33.0263 37.666 43.6476 52.0782 65 19.8121 22.0862 24.6284 27.5105 30.8376 34.7728 39.5891 45.7984 54.5499 65 20.903 23.018 25.3824 28.063 31.1575 34.8175 39.2969 45.072 53.2114 65 22.2555 24.3224 26.633 29.2525 32.2765 35.8532 40.2306 45.8742 53.8283 65 23.4629 25.6504 28.0959 30.8683 34.0688 37.8542 42.4872 48.4602 56.8786 65 24.9708 27.2987 29.901 32.8513 36.2571 40.2854 45.2156 51.5717 60.5302 65 26.3123 28.804 31.5895 34.7474 38.393 42.7047 47.9819 54.7854 64.3743 65 27.7159 29.8538 32.2437 34.9532 38.0811 41.7806 46.3084 52.1457 60.373 65 29.1139 31.1351 33.3945 35.956 38.9131 42.4106 46.6911 52.2097 59.9878 65 30.2298 32.1456 34.2873 36.7154 39.5184 42.8336 46.8911 52.1221 59.4949 65 31.5262 33.9673 36.6961 39.7898 43.3612 47.5852 52.7551 59.4202 65 33.1842 35.4738 38.0335 40.9353 44.2852 48.2474 53.0967 59.3485 65 34.6155 36.798 39.2379 42.004 45.1972 48.974 53.5964 59.5557 65 36.2893 38.6674 41.3259 44.3398 47.8191 51.9343 56.9708 63.464 65 37.8172 40.5054 43.5105 46.9174 50.8504 55.5022 61.1955 65 39.5949 41.7479 44.1548 46.8835 50.0336 53.7593 58.3192 64.198 65 41.0628 43.1194 45.4185 48.025 51.034 54.5929 58.9486 64.5641 65 42.7903 44.9799 47.4277 50.2027 53.4062 57.1952 61.8326 65 45.0081 47.3359 49.9382 52.8884 56.2941 60.3222 65 46.9512 48.8291 50.9285 53.3086 56.0562 59.306 63.2833 65 49.1314 50.9165 52.9122 55.1746 57.7864 60.8756 64.6563 65 51.2175 53.086 55.1747 57.5427 60.2764 63.5097 65 53.1251 55.275 57.6785 60.4033 63.5489 65 55.356 57.4471 59.7846 62.4347 65 57.8956 59.8951 62.1303 64.6644 65 60.0335 62.372 64.9863 65 62.5365 64.5061 65 64.8272 65 0.55075 0.597266 1.35085 2.09706 3.05863 3.94199 4.80694 5.77566 6.70003 7.51759 8.53628 9.36151 10.3389 11.2113 12.2286 13.1102 14.0428 14.8305 15.8354 16.9218 18.0281 19.2404 20.4526 21.6014 22.6629 23.8436 24.9755 26.0891 27.5345 28.9766 30.3329 31.591 33.314 34.6814 35.9994 37.7882 39.3538 41.3424 43.2471 45.2075 47.5258 49.7771 51.8676 53.4552 55.523 57.5639 60.2517 63.1249 65 7.71071 10.0345 12.6323 15.5774 18.9773 22.9985 27.9201 34.2651 43.2079 58.4957 65 8.58661 10.6313 12.917 15.5084 18.4999 22.0381 26.3685 31.9514 39.8201 53.2716 65 9.45616 11.6261 14.0519 16.8021 19.9769 23.7319 28.3277 34.2527 42.6035 56.8792 65 10.58 12.7424 15.1597 17.9003 21.0641 24.806 29.3857 35.29 43.6116 57.8376 65 11.6159 14.0076 16.6814 19.7127 23.212 27.3508 32.4164 38.947 48.1513 63.8863 65 12.6334 14.3551 16.2797 18.4616 20.9805 23.9597 27.606 32.3068 38.9323 50.2586 65 13.7769 15.738 17.9303 20.4157 23.2849 26.6784 30.8317 36.1863 43.7332 56.6346 65 14.8721 17.05 19.4847 22.245 25.4315 29.2003 33.813 39.7598 48.1413 62.4696 65 15.844 17.7233 19.8241 22.2059 24.9555 28.2076 32.1878 37.3191 44.5514 56.915 65 17.0594 19.0019 21.1734 23.6353 26.4773 29.8387 33.9527 39.2566 46.732 59.5113 65 18.0477 20.2651 22.7438 25.554 28.7981 32.6351 37.3312 43.3855 51.9185 65 19.2228 21.9468 24.9919 28.4441 32.4295 37.1431 42.9122 50.3498 60.8325 65 20.2757 22.3481 24.6648 27.2913 30.3233 33.9095 38.2986 43.9571 51.9323 65 21.5087 23.7408 26.2362 29.0651 32.3309 36.1936 40.9211 47.0159 55.606 65 22.5818 25.0758 27.8639 31.0248 34.6738 38.9896 44.2717 51.0815 60.6795 65 23.7217 25.694 27.8988 30.3984 33.284 36.6969 40.874 46.2592 53.8492 65 24.6883 26.6502 28.8434 31.3298 34.2001 37.595 41.75 47.1067 54.6567 65 25.927 28.0706 30.4669 33.1837 36.3199 40.0293 44.5693 50.4223 58.6716 65 27.2729 29.5939 32.1886 35.1302 38.5261 42.5425 47.4582 53.7956 62.7278 65 28.6513 30.5485 32.6694 35.0738 37.8496 41.1326 45.1507 50.331 57.6321 65 30.1707 32.5847 35.2834 38.3429 41.8748 46.0522 51.1649 57.7563 65 31.7002 33.5753 35.6715 38.048 40.7915 44.0363 48.0076 53.1276 60.3437 65 33.1592 35.6172 38.3651 41.4804 45.0767 49.3303 54.5363 61.2479 65 34.5158 36.6036 38.9375 41.5835 44.6381 48.2509 52.6726 58.3732 65 36.035 37.8338 39.8448 42.1246 44.7565 47.8693 51.6792 56.5909 63.5136 65 37.5015 39.6876 42.1315 44.9021 48.1005 51.8835 56.5135 62.4826 65 38.9547 41.2113 43.7339 46.5939 49.8954 53.8003 58.5796 64.7411 65 40.8566 43.2344 45.8925 48.9061 52.3849 56.4996 61.5355 65 42.7726 44.8772 47.2299 49.8972 52.9763 56.6182 61.0755 65 44.5925 46.6116 48.8687 51.4276 54.3816 57.8755 62.1516 65 46.2969 48.3927 50.7356 53.3918 56.4581 60.0848 64.5234 65 48.6577 50.5908 52.7517 55.2016 58.0298 61.3749 65 50.5543 52.5334 54.7457 57.2539 60.1495 63.5741 65 52.4028 54.8571 57.6006 60.7111 64.3018 65 54.9455 56.6989 58.659 60.8811 63.4464 65 57.2052 59.4065 61.8675 64.6575 65 60.1244 62.1812 64.4805 65 62.976 65 1.07635 1.11849 1.94203 2.75942 3.52532 4.28629 4.99914 5.74184 6.68957 7.69376 8.65506 9.50867 10.4759 11.3679 12.4187 13.4747 14.4685 15.4791 16.5172 17.4052 18.3575 19.427 20.469 21.5066 22.7593 24.0843 25.4398 26.8148 28.1587 29.4008 30.6753 31.9459 33.3745 34.6803 36.4881 38.0651 39.8599 41.6998 43.224 45.2218 47.2056 48.9544 51.1027 53.4276 55.3816 58.1551 60.1982 62.8235 65 11.6479 13.5869 15.7545 18.212 21.0489 24.4043 28.511 33.8054 41.2675 54.0239 65 12.652 14.7582 17.1127 19.782 22.8634 26.5081 30.9687 36.7195 44.8247 58.6808 65 13.6521 15.8827 18.3763 21.2033 24.4668 28.3268 33.051 39.1416 47.7257 62.4004 65 14.5923 16.6606 18.9728 21.5941 24.6203 28.1994 32.5799 38.2274 46.1871 59.7942 65 15.5294 17.7835 20.3033 23.16 26.4578 30.3583 35.1321 41.2867 49.961 64.7899 65 16.4102 18.3476 20.5135 22.969 25.8036 29.1563 33.2596 38.5497 46 58.7404 65 17.3308 19.4116 21.7377 24.3748 27.4192 31.0198 35.4267 41.1082 49.1158 62.8048 65 18.51 20.4456 22.6094 25.0625 27.8944 31.2438 35.3431 40.6281 48.0769 60.8106 65 19.7652 21.7122 23.8887 26.3563 29.2049 32.5741 36.6977 42.0139 49.5066 62.3156 65 20.9723 22.9291 25.1167 27.5968 30.4598 33.8461 37.9905 43.3336 50.8643 63.7381 65 22.0489 24.1165 26.428 29.0485 32.0736 35.6516 40.0307 45.6763 53.6334 65 23.2742 25.7444 28.5059 31.6366 35.2507 39.5252 44.7569 51.5017 61.0079 65 24.4095 26.6963 29.2527 32.1509 35.4966 39.4537 44.2968 50.5407 59.341 65 25.7539 27.7421 29.9647 32.4845 35.3934 38.8339 43.0447 48.4734 56.1247 65 27.1122 29.2223 31.5811 34.2553 37.3425 40.9939 45.4628 51.2242 59.3445 65 28.3977 30.9678 33.841 37.0984 40.8587 45.3062 50.7496 57.7673 65 29.7122 31.9072 34.3609 37.1428 40.3542 44.1525 48.8012 54.7945 63.2415 65 31.0704 33.4067 36.0185 38.9795 42.3977 46.4406 51.3887 57.7679 65 32.2387 34.4972 37.022 39.8844 43.1887 47.097 51.8803 58.047 65 33.4985 35.4164 37.5604 39.9911 42.7972 46.116 50.1779 55.4147 62.7954 65 34.9221 37.0805 39.4934 42.229 45.3869 49.1219 53.6932 59.5866 65 36.3185 38.3625 40.6475 43.238 46.2286 49.7657 54.0947 59.6758 65 37.718 40.2591 43.0998 46.3203 50.0381 54.4353 59.817 65 39.4207 41.8135 44.4885 47.5211 51.022 55.1626 60.2304 65 41.2376 43.2646 45.5306 48.0996 51.0653 54.5729 58.8659 64.4006 65 43.114 45.5323 48.2358 51.3008 54.8391 59.024 64.1458 65 45.0363 47.0955 49.3976 52.0075 55.0204 58.5839 62.9453 65 46.9347 48.9765 51.259 53.8467 56.834 60.3672 64.6915 65 48.707 50.6573 52.8374 55.3091 58.1624 61.5371 65 50.5443 52.5001 54.6865 57.1653 60.0268 63.4112 65 52.3956 54.2436 56.3095 58.6516 61.3554 64.5533 65 54.5017 56.4679 58.6659 61.1578 64.0345 65 56.4507 59.0072 61.8651 65 59.1888 61.1612 63.3661 65 61.6174 63.6478 65 64.43 65 1.54571 1.60022 2.56365 3.45295 4.39406 5.34215 6.17276 7.27467 8.29716 9.36572 10.243 11.2519 12.3719 13.461 14.4926 15.4764 16.4991 17.655 18.8389 20.1508 21.103 22.017 23.1602 24.4891 25.8195 27.0408 28.3445 29.4316 30.8376 32.2369 33.5672 35.0231 36.8709 38.6497 40.2249 42.147 43.9386 45.8539 48.1223 50.0758 52.5525 54.6624 57.0792 59.585 62.1736 64.5087 65 9.83485 12.1041 14.641 17.517 20.8371 24.764 29.5701 35.7663 44.4993 59.4284 65 10.9609 13.0147 15.3107 17.9136 20.9184 24.4724 28.8221 34.4299 42.3336 55.8451 65 12.0035 13.8866 15.9918 18.3785 21.1336 24.3924 28.3807 33.5226 40.7696 53.1585 65 13.11 15.0774 17.2767 19.7701 22.6486 26.053 30.2198 35.5916 43.1628 56.1058 65 14.2283 16.2133 18.4324 20.9482 23.8525 27.2876 31.4917 36.9118 44.551 57.6103 65 15.211 17.6176 20.308 23.3582 26.8793 31.0439 36.141 42.7123 51.9739 65 16.519 18.8201 21.3925 24.3088 27.6755 31.6574 36.5309 42.8139 51.6693 65 17.7373 20.223 23.0017 26.1519 29.7886 34.0898 39.3542 46.1411 55.7067 65 19.0154 21.0969 23.4239 26.0619 29.1074 32.7093 37.1178 42.8012 50.8116 64.5055 65 20.0685 22.1849 24.5508 27.233 30.3294 33.9917 38.474 44.2526 52.3971 65 21.284 23.1535 25.2434 27.6128 30.348 33.5831 37.5426 42.6471 49.8417 62.1408 65 22.6388 24.8372 27.2947 30.0809 33.2973 37.1014 41.7574 47.7599 56.22 65 23.9621 25.9804 28.2366 30.7945 33.7473 37.2398 41.5143 47.025 54.7919 65 25.2211 27.175 29.3592 31.8355 34.6941 38.0752 42.2133 47.5482 55.0674 65 26.4267 28.8975 31.6597 34.7911 38.4062 42.6818 47.9148 54.6614 64.17 65 27.6854 30.1453 32.8953 36.0129 39.6119 43.8687 49.0785 55.7951 65 29.1149 31.1741 33.4762 36.0861 39.0991 42.6626 47.024 52.6468 60.5717 65 30.5867 32.8038 35.2823 38.0922 41.336 45.1726 49.8683 55.922 64.4543 65 32.227 34.5155 37.0738 39.9741 43.3224 47.2825 52.1292 58.3778 65 33.424 35.5357 37.8964 40.5728 43.6624 47.3167 51.7891 57.5551 65 34.5783 36.6674 39.0028 41.6504 44.7068 48.3219 52.7463 58.4504 65 36.0295 37.9683 40.1358 42.593 45.4297 48.7848 52.8911 58.1851 65 37.727 39.8766 42.2795 45.0038 48.1487 51.8684 56.4209 62.2901 65 39.4386 41.5864 43.9875 46.7096 49.852 53.5687 58.1176 63.9821 65 41.0206 42.9878 45.1869 47.68 50.5581 53.9622 58.1284 63.4997 65 42.7216 45.1653 47.897 50.9941 54.5694 58.798 63.9734 65 44.1498 46.316 48.7376 51.4829 54.6522 58.4007 62.9885 65 46.0108 47.9326 50.081 52.5166 55.3284 58.654 62.7242 65 47.8789 50.3691 53.1529 56.3089 59.9523 64.2615 65 49.6706 51.7428 54.0592 56.6854 59.7171 63.3028 65 51.6496 53.8799 56.373 59.1996 62.4626 65 54.1901 56.5704 59.2313 62.248 65 56.6679 58.8621 61.315 64.0959 65 58.8898 60.8991 63.1452 65 61.639 63.7618 65 64.241 65 2.02595 2.07331 2.86232 3.59536 4.45094 5.33805 6.0313 6.76554 7.63187 8.53072 9.48688 10.3429 11.3496 12.3656 13.4389 14.7358 15.7515 16.6845 17.634 18.7128 19.7314 20.6471 21.9979 23.4756 24.7787 26.1073 27.4808 28.7525 29.9262 31.2729 32.8426 34.1983 35.6073 37.3679 38.729 40.5277 42.257 44.3926 46.0325 47.6807 49.6774 51.806 54.0748 56.1878 58.4282 61.4055 63.784 65 11.0882 13.3746 15.9305 18.8283 22.1734 26.1299 30.9723 37.2152 46 61.0277 65 12.0284 14.0214 16.2494 18.7753 21.6913 25.1401 29.3611 34.803 42.4729 55.5846 65 12.9044 14.9688 17.2766 19.8929 22.9133 26.4856 30.8577 36.4944 44.4389 58.0201 65 13.93 16.1354 18.601 21.3961 24.6229 28.4394 33.1104 39.1324 47.6199 62.1294 65 14.9969 17.1642 19.5871 22.334 25.505 29.2555 33.8458 39.7637 48.1044 62.3631 65 15.8333 17.6083 19.5926 21.8422 24.4392 27.5107 31.27 36.1166 42.9475 54.625 65 16.7216 18.7984 21.12 23.752 26.7905 30.3842 34.7826 40.4531 48.4452 62.1078 65 17.7733 20.2026 22.9184 25.9974 29.5517 33.7557 38.9008 45.5341 54.8832 65 18.8684 21.2081 23.8237 26.7889 30.2121 34.2609 39.2161 45.6046 54.6086 65 20.0379 21.9691 24.128 26.5755 29.401 32.7428 36.8329 42.1059 49.5378 62.2427 65 21.0891 23.1901 25.5389 28.2016 31.2755 34.9112 39.3609 45.0976 53.183 65 22.3305 24.1337 26.1495 28.4348 31.073 34.1934 38.0124 42.936 49.8753 61.7383 65 23.5891 25.4091 27.4436 29.7501 32.4128 35.5622 39.4166 44.3859 51.3897 63.3627 65 24.9252 27.311 29.978 33.0016 36.4921 40.6205 45.6733 52.1874 61.3685 65 26.5489 28.6305 30.9575 33.5957 36.6413 40.2434 44.6521 50.3359 58.3467 65 27.8277 29.6261 31.6365 33.9157 36.5469 39.6589 43.4677 48.3781 55.2989 65 29.0083 31.2344 33.723 36.5443 39.8012 43.6533 48.368 54.4462 63.013 65 30.2156 31.8256 33.6256 35.6661 38.0218 40.808 44.218 48.6143 54.8105 65 31.5947 33.7745 36.2114 38.9741 42.1633 45.9355 50.5522 56.5041 64.8929 65 32.9042 35.717 38.8615 42.4264 46.5418 51.4093 57.3667 65 34.0879 36.8887 40.0198 43.5695 47.6673 52.514 58.4459 65 35.8453 38.2032 40.8392 43.8276 47.2775 51.3578 56.3517 62.79 65 37.784 39.8999 42.2652 44.9468 48.0425 51.7039 56.1851 61.9623 65 39.5082 41.9382 44.6546 47.7342 51.2894 55.4943 60.6406 65 41.281 44.0516 47.1489 50.6603 54.7139 59.5083 65 43.1299 45.2506 47.6214 50.3091 53.4119 57.0817 61.5732 65 44.8572 46.8341 49.044 51.5495 54.4418 57.8627 62.0495 65 46.4652 48.4706 50.7125 53.2541 56.1881 59.6584 63.9056 65 48.3272 50.7238 53.403 56.4404 59.9468 64.0941 65 50.5213 52.7458 55.2326 58.0519 61.3065 65 52.4383 54.649 57.1202 59.922 63.1563 65 54.4531 56.623 59.0487 61.7987 64.9734 65 57.0048 59.1296 61.5048 64.1976 65 59.0049 61.0863 63.4131 65 61.6871 63.5948 65 64.3104 65 2.57531 2.62311 3.35111 4.00246 4.8163 5.5588 6.28373 7.01534 7.72466 8.48978 9.32509 10.0283 10.9589 11.687 12.6183 13.5441 14.4259 15.4813 16.4574 17.4091 18.4024 19.3849 20.3485 21.4515 22.5924 23.6323 24.6973 25.8419 27.1291 28.2804 29.5077 30.8882 32.308 33.6438 35.2322 36.8601 38.4217 39.8003 41.6287 43.2586 44.9801 46.8275 48.5697 50.7312 52.899 55.2402 57.0794 59.6401 62.0312 65 9.70652 11.6715 13.8682 16.3586 19.2336 22.6339 26.7956 32.161 39.723 52.6504 65 10.5603 12.8588 15.4284 18.3416 21.7046 25.6822 30.5504 36.8265 45.6723 60.7942 65 11.3262 13.2672 15.4371 17.8972 20.7371 24.096 28.207 33.507 40.9769 53.7467 65 12.2859 14.719 17.4391 20.5228 24.0826 28.2931 33.4462 40.0898 49.4534 65 13.1643 15.4993 18.1097 21.0691 24.4855 28.5262 33.4716 39.8474 48.8336 64.1955 65 14.0244 16.2573 18.7533 21.5831 24.8499 28.7137 33.4426 39.5392 48.1318 62.8211 65 14.8952 16.863 19.0627 21.5566 24.4355 27.8406 32.0081 37.381 44.9536 57.899 65 15.7421 17.8476 20.2014 22.8699 25.9505 29.5941 34.0534 39.8026 47.9055 61.7575 65 16.6585 18.6311 20.8363 23.3364 26.2226 29.6362 33.8141 39.2003 46.7918 59.7695 65 17.6625 19.6231 21.8148 24.2996 27.168 30.5607 34.713 40.0662 47.6111 60.5093 65 18.5107 20.4466 22.6107 25.0642 27.8966 31.2465 35.3465 40.6324 48.0824 60.8182 65 19.6375 21.8322 24.2857 27.0672 30.2782 34.076 38.7242 44.7168 53.1628 65 20.5226 22.9454 25.6538 28.7243 32.269 36.4615 41.5927 48.208 57.5316 65 21.6592 24.1804 26.9988 30.1941 33.8828 38.2455 43.5851 50.4691 60.1715 65 22.7944 24.7506 26.9374 29.4166 32.2787 35.6638 39.8068 45.1481 52.6762 65 23.8806 26.5962 29.632 33.0737 37.0469 41.7461 47.4975 54.9123 65 25.1874 27.3316 29.7286 32.4461 35.5833 39.2937 43.835 49.6896 57.9413 65 26.4025 28.4235 30.6829 33.2443 36.2012 39.6986 43.979 49.4973 57.2751 65 27.5936 29.5323 31.6997 34.1568 36.9934 40.3483 44.4544 49.7481 57.2092 65 28.8437 30.9189 33.2388 35.8689 38.9051 42.4962 46.8913 52.5577 60.5439 65 30.0873 32.0265 34.1943 36.652 39.4892 42.845 46.952 52.2469 59.7097 65 31.3142 33.4232 35.7809 38.4538 41.5395 45.1891 49.6558 55.4144 63.5308 65 32.7275 34.8721 37.2695 39.9875 43.1252 46.8363 51.3783 57.234 65 34.1998 36.1149 38.2557 40.6828 43.4847 46.7986 50.8545 56.0835 63.4533 65 35.5516 38.0297 40.8001 43.9409 47.5667 51.8551 57.1036 63.8702 65 36.9458 39.1331 41.5784 44.3506 47.5508 51.3359 55.9685 61.9409 65 38.456 40.8052 43.4313 46.4086 49.8456 53.9107 58.8861 65 40.1693 42.5961 45.3091 48.3848 51.9354 56.1349 61.2747 65 41.7157 43.8243 46.1815 48.8538 51.9388 55.5875 60.0532 65 43.3798 45.8703 48.6545 51.811 55.4549 59.7647 65 45.2713 47.3169 49.6038 52.1964 55.1894 58.7293 63.0618 65 47.2397 49.4186 51.8543 54.6158 57.8036 61.574 65 49.1144 51.2951 53.733 56.4968 59.6874 63.4611 65 51.3737 53.8837 56.6896 59.8708 63.5431 65 53.7255 55.9143 58.3612 61.1353 64.3377 65 56.0183 58.1113 60.451 63.1035 65 58.0746 60.0421 62.2416 64.7352 65 60.8516 62.6589 64.6793 65 63.3786 65 3.10276 3.14841 3.9405 4.73441 5.42453 6.2748 7.06418 7.98492 8.83193 9.74706 10.6393 11.636 12.4948 13.5364 14.6109 15.4613 16.5351 17.6037 18.6555 19.8663 21.0193 22.2482 23.4673 24.4274 25.6217 26.9684 28.1257 29.3699 30.3562 31.6244 32.9668 34.4048 35.7882 37.3377 38.9833 40.6067 42.141 44.3179 46.1548 48.0515 49.714 51.4108 53.7503 56.022 58.3278 60.5831 62.725 65 13.2864 15.3577 17.6732 20.2983 23.3287 26.913 31.2998 36.9553 44.9264 58.553 65 14.2511 16.5798 19.183 22.1343 25.5413 29.5709 34.5028 40.8611 49.8226 65 15.2213 17.2016 19.4153 21.925 24.8223 28.249 32.443 37.8499 45.4706 58.4983 65 16.0674 17.6881 19.4998 21.5538 23.9249 26.7294 30.1617 34.5869 40.8237 51.4857 65 17.1134 19.2017 21.5363 24.1831 27.2386 30.8524 35.2754 40.9776 49.0145 62.7536 65 18.088 20.1881 22.5358 25.1974 28.27 31.9041 36.3519 42.086 50.1679 63.984 65 19.2293 21.3854 23.7958 26.5285 29.6832 33.4144 37.981 43.8683 52.1661 65 20.2835 22.4823 24.9404 27.7272 30.9443 34.7493 39.4062 45.41 53.8719 65 21.4273 23.477 25.7684 28.3661 31.365 34.9119 39.253 44.8496 52.7376 65 22.5474 25.057 27.8625 31.0431 34.7149 39.0576 44.3727 51.225 60.8829 65 23.8046 26.1079 28.6827 31.6017 34.9716 38.9572 43.8352 50.1241 58.9878 65 24.893 27.3049 30 33.0567 36.5853 40.7587 45.8665 52.4513 61.7317 65 26.2195 28.5867 31.233 34.2332 37.6966 41.793 46.8065 53.2701 62.38 65 27.5958 29.7461 32.1498 34.875 38.021 41.7419 46.2959 52.1671 60.442 65 28.6908 31.0791 33.7491 36.776 40.2704 44.4033 49.4616 55.9829 65 30.0809 32.1476 34.4581 37.0775 40.1013 43.6778 48.055 53.6982 61.6519 65 31.4728 33.9771 36.7767 39.9506 43.6145 47.9481 53.252 60.0899 65 32.8515 35.0076 37.4181 40.1508 43.3054 47.0366 51.6032 57.4906 65 34.4495 36.7105 39.2379 42.1034 45.4113 49.3237 54.1121 60.2854 65 35.9826 37.8333 39.9023 42.2479 44.9557 48.1583 52.0781 57.1314 64.2538 65 37.6292 39.6005 41.8043 44.3028 47.187 50.5983 54.7735 60.1562 65 39.276 41.4615 43.9046 46.6744 49.8719 53.6537 58.2823 64.2495 65 40.5826 42.8858 45.4606 48.3796 51.7494 55.735 60.613 65 42.2205 44.2317 46.4801 49.0291 51.9716 55.452 59.7116 65 44.0846 46.2589 48.6897 51.4454 54.6266 58.3892 62.9943 65 45.7017 47.5611 49.6398 51.9965 54.717 57.9347 61.8729 65 47.4563 50.1321 53.1233 56.5144 60.4292 65 48.86 51.1729 53.7586 56.69 60.074 64.0765 65 50.6817 53.1031 55.8099 58.8786 62.4212 65 52.6316 54.6666 56.9414 59.5205 62.4978 65 54.7465 57.5321 60.6461 64.1765 65 56.8079 59.0395 61.5341 64.3624 65 59.1497 61.2754 63.6517 65 61.6771 63.9216 65 64.2141 65 3.5286 3.58819 4.54235 5.42583 6.2967 7.17767 8.19913 9.3284 10.3281 11.4092 12.4632 13.5505 14.7423 15.7194 16.9183 17.9186 19.2426 20.3899 21.5842 22.8794 24.2063 25.509 26.6372 28.1218 29.4451 30.8545 32.3515 33.7921 35.4841 37.0262 38.6385 40.2866 42.0151 43.5216 45.2034 46.7607 48.7016 50.9277 53.0763 55.1353 57.6022 59.6645 61.6784 64.2549 65 13.0508 15.1972 17.5965 20.3167 23.457 27.1711 31.7168 37.5773 45.8371 59.9574 65 14.1802 16.4278 18.9403 21.7888 25.0771 28.9664 33.7265 39.8633 48.5127 63.2989 65 15.2291 17.4889 20.0151 22.8791 26.1854 30.0958 34.8818 41.0521 49.7486 64.6153 65 16.266 18.5985 21.2059 24.162 27.5745 31.6107 36.5506 42.9192 51.8953 65 17.3181 19.2471 21.4036 23.8483 26.6706 30 34.0833 39.3467 46.763 59.4319 65 18.542 20.6315 22.9675 25.6157 28.6729 32.2888 36.7142 42.4197 50.461 64.2078 65 19.9002 21.7 23.7119 25.9929 28.626 31.7404 35.5521 40.4662 47.3923 59.2324 65 21.1073 23.0436 25.2083 27.6623 30.4953 33.846 37.947 43.234 50.6857 63.4244 65 22.4176 24.7598 27.3783 30.3468 33.7737 37.8269 42.7876 49.1831 58.197 65 23.7003 25.9871 28.5436 31.442 34.7878 38.7452 43.5886 49.8328 58.6335 65 25.0289 26.7655 28.7069 30.9079 33.4487 36.4538 40.1318 44.8735 51.5566 62.9815 65 26.492 28.9386 31.6737 34.7744 38.354 42.5877 47.7694 54.4497 63.8651 65 27.6967 30.1979 32.994 36.164 39.8235 44.1518 49.4492 56.2787 65 29.1817 31.2473 33.5564 36.1742 39.1963 42.7706 47.1453 52.7852 60.7342 65 30.4264 32.8327 35.5227 38.5723 42.0929 46.2568 51.3531 57.9233 65 32.0824 34.15 36.4613 39.0817 42.1066 45.6844 50.0633 55.7086 63.6653 65 33.5254 35.742 38.2201 41.0294 44.2726 48.1085 52.8032 58.8557 65 35.0356 37.0484 39.2985 41.8494 44.7943 48.2773 52.5401 58.0359 65 36.683 38.7264 41.0108 43.6006 46.5903 50.1264 54.4542 60.0337 65 38.3817 40.5826 43.043 45.8324 49.0525 52.8611 57.5225 63.532 65 40.0603 41.9275 44.0149 46.3813 49.1132 52.3443 56.2988 61.3971 65 41.5232 43.6644 46.058 48.7717 51.9045 55.6097 60.1446 65 43.4617 45.4402 47.6519 50.1593 53.0539 56.4775 60.6677 65 45.2031 47.394 49.8432 52.6199 55.8253 59.6166 64.2567 65 47.072 49.4826 52.1775 55.2326 58.7596 62.931 65 49.0741 51.0813 53.325 55.8688 58.8054 62.2787 65 51.0181 52.8012 54.7945 57.0544 59.6632 62.7488 65 53.3239 55.27 57.4456 59.912 62.7594 65 55.4475 57.3589 59.4957 61.9181 64.7146 65 57.6919 59.8779 62.3216 65 60.0127 62.1807 64.6043 65 62.4772 64.2432 65 64.6519 65 3.99672 4.04752 4.87859 5.72507 6.69346 7.59676 8.39476 9.49733 10.4347 11.341 12.4263 13.3173 14.0964 15.0859 16.3526 17.3148 18.266 19.4581 20.672 21.7961 22.9189 23.9648 25.2702 26.4548 27.7302 28.9883 30.4072 31.7784 33.0377 34.3955 35.7486 37.4318 39.0672 40.7879 42.6511 44.7047 46.2765 48.2962 50.6301 52.7664 55.338 57.2806 59.3986 62.0282 64.441 65 13.4151 15.9662 18.8181 22.0514 25.7839 30.1985 35.6015 42.5673 52.3849 65 14.4028 16.7163 19.3026 22.2346 25.6195 29.6229 34.5227 40.8397 49.7429 64.9631 65 15.4117 17.2575 19.321 21.6603 24.3609 27.555 31.4643 36.5043 43.6077 55.751 65 16.5697 19.0911 21.9098 25.1053 28.7943 33.1575 38.4976 45.3821 55.0854 65 17.6535 20.2371 23.1253 26.3997 30.1797 34.6505 40.1223 47.1767 57.1193 65 18.614 21.0496 23.7725 26.8594 30.4229 34.6377 39.7963 46.4467 55.82 65 19.9458 22.2183 24.7589 27.6391 30.9641 34.8967 39.7098 45.915 54.6608 65 21.0824 23.3437 25.8716 28.7375 32.0459 35.959 40.7482 46.9225 55.6247 65 22.1855 24.6422 27.3885 30.502 34.0963 38.3474 43.5503 50.2581 59.7122 65 23.5116 25.6151 27.9665 30.6324 33.7099 37.3498 41.8047 47.5481 55.6429 65 24.6048 27.0263 29.7334 32.8024 36.3452 40.5356 45.6642 52.276 61.5949 65 25.5641 27.6284 29.9362 32.5525 35.5729 39.1452 43.5174 49.154 57.0985 65 26.7869 29.1992 31.896 34.9533 38.4828 42.6572 47.7663 54.353 63.6365 65 28.36 30.4292 32.7422 35.3646 38.3919 41.9724 46.3546 52.0042 59.9669 65 29.5609 31.9966 34.7195 37.8064 41.37 45.5849 50.7434 57.3939 65 30.7535 32.808 35.1048 37.7087 40.7147 44.27 48.6214 54.2313 62.138 65 32.2554 34.6695 37.3682 40.4277 43.9597 48.1371 53.2499 59.8413 65 33.7938 36.1762 38.8396 41.8591 45.3448 49.4675 54.5133 61.0185 65 35.2267 37.1661 39.3342 41.7922 44.6298 47.9859 52.0935 57.3891 64.8528 65 36.666 38.9073 41.4128 44.2533 47.5324 51.4108 56.1576 62.2773 65 38.0144 40.1447 42.5261 45.2259 48.3426 52.0289 56.5405 62.357 65 39.708 41.7633 44.0608 46.6656 49.6726 53.2291 57.5819 63.1937 65 41.2556 43.4209 45.8415 48.5858 51.7538 55.5008 60.0868 65 42.9334 44.7719 46.8272 49.1573 51.8472 55.0287 58.9226 63.9426 65 44.6006 46.6559 48.9536 51.5584 54.5655 58.1221 62.475 65 46.4964 48.5378 50.8198 53.4069 56.3936 59.926 64.2494 65 48.3445 50.0678 51.9942 54.1782 56.6994 59.6814 63.3311 65 50.0562 52.3442 54.9019 57.8016 61.1491 65 51.918 54.4348 57.2483 60.4381 64.1203 65 53.7907 55.7208 57.8784 60.3245 63.1483 65 56.1459 58.1133 60.3127 62.8062 65 58.4627 60.6151 63.0212 65 60.9323 63.2352 65 63.6458 65 4.44679 4.49319 5.18276 5.83956 6.59607 7.24658 8.11758 8.94191 9.86895 10.7049 11.502 12.1905 13.1441 14.1838 15.1365 16.0705 17.0228 17.876 18.8464 20.0768 21.0062 22.0716 23.0336 24.2302 25.3167 26.6424 27.9668 29.0978 30.3743 31.5018 32.7549 33.7539 34.9441 36.6954 38.2973 39.8514 41.7898 43.5083 44.7939 46.161 48.1866 50.1137 52.2955 54.4145 56.5752 59.0478 61.5254 64.321 65 11.5083 13.5957 15.9291 18.5746 21.6285 25.2406 29.6614 35.3608 43.3937 57.1259 65 12.3128 14.5733 17.1004 19.9653 23.2726 27.1843 31.9719 38.1442 46.8435 61.7151 65 13.0809 15.3262 17.8363 20.682 23.9671 27.8526 32.608 38.7388 47.3797 62.1514 65 13.9679 15.9821 18.2337 20.7864 23.7332 27.2186 31.4844 36.9839 44.7351 57.9858 65 14.7327 16.7474 18.9997 21.5531 24.5008 27.9871 32.2541 37.7552 45.5085 58.763 65 15.7598 18.0627 20.6371 23.5558 26.9252 30.9103 35.7877 42.0757 50.9383 65 16.735 18.6634 20.8192 23.2631 26.0845 29.4215 33.5057 38.771 46.1922 58.8787 65 17.8357 19.6849 21.7522 24.0959 26.8015 30 33.9162 38.9648 46 58.0824 65 18.8318 20.7258 22.8431 25.2435 28.0145 31.292 35.3033 40.4747 47.7635 60.2236 65 19.7849 22.1123 24.7141 27.6638 31.069 35.0965 40.0257 46.3806 55.3373 65 20.6107 22.3806 24.3592 26.6023 29.1918 32.2546 36.003 40.8356 47.6468 59.2906 65 21.7588 23.857 26.2025 28.8616 31.9314 35.5622 40.0058 45.7347 53.8092 65 23.0161 25.1115 27.454 30.1098 33.1755 36.8016 41.2396 46.9611 55.0251 65 24.1736 26.2308 28.5306 31.1378 34.1477 37.7076 42.0646 47.6817 55.5987 65 25.3132 27.3259 29.5759 32.1267 35.0714 38.5543 42.817 48.3125 56.058 65 26.4807 28.4553 30.6628 33.1654 36.0544 39.4715 43.6535 49.0452 56.6443 65 27.5315 29.5899 31.891 34.4998 37.5114 41.0733 45.4328 51.0532 58.9747 65 28.7321 31.0747 33.6936 36.6627 40.0902 44.1442 49.1057 55.5023 64.5178 65 30.2631 32.6533 35.3254 38.3548 41.8519 45.9881 51.0505 57.5769 65 31.4263 33.6582 36.1533 38.982 42.2475 46.1098 50.8368 56.931 65 32.7673 35.1475 37.8083 40.8249 44.3073 48.4261 53.467 59.966 65 33.985 36.0337 38.3239 40.9203 43.9177 47.4628 51.8016 57.3954 65 35.5095 37.5062 39.7385 42.2691 45.1906 48.6459 52.8749 58.327 65 36.9033 38.9444 41.2261 43.8129 46.7992 50.3312 54.6541 60.2272 65 38.6169 40.8731 43.3954 46.255 49.5561 53.4604 58.239 64.3996 65 40.3435 42.2499 44.3811 46.7973 49.5866 52.8856 56.9233 62.1287 65 41.8303 44.0675 46.5685 49.4039 52.6771 56.5485 61.2867 65 43.5224 46.2743 49.3507 52.8384 56.8647 61.6268 65 45.0301 47.0183 49.241 51.7608 54.6697 58.1102 62.321 65 46.7207 48.7077 50.9289 53.4472 56.3543 59.7927 64.001 65 48.0803 50.0081 52.1631 54.6063 57.4268 60.7627 64.8456 65 49.7143 52.37 55.3388 58.7046 62.5901 65 52.1483 54.2384 56.5749 59.2238 62.2818 65 54.4073 56.3303 58.48 60.9172 63.7307 65 56.631 58.7076 61.0292 63.6611 65 59.4515 61.6283 64.0617 65 61.9993 64.2353 65 63.9362 65 4.93213 4.9729 5.66771 6.45515 7.15726 7.76536 8.54744 9.3581 9.98918 10.7928 11.4858 12.2471 13.1216 13.9109 14.6858 15.4281 16.3695 17.3031 18.3643 19.2889 20.2171 21.3903 22.3823 23.3364 24.4084 25.4566 26.5641 27.7699 28.8353 30.2742 31.58 32.8396 34.1107 35.5593 37.2375 38.4984 40.1167 41.6536 43.2822 45.3619 47.2397 49.151 50.6261 52.8742 54.9553 57.0617 59.165 61.3576 64.4675 65 11.1881 13.4814 16.0451 18.9515 22.3067 26.2751 31.132 37.3937 46.219 61.306 65 11.9911 14.2937 16.8678 19.7862 23.1551 27.1397 32.0165 38.3037 47.1651 62.3137 65 12.9035 14.9934 17.3297 19.9784 23.036 26.6525 31.0787 36.785 44.8277 58.5767 65 13.7193 15.9438 18.4306 21.2499 24.5045 28.3539 33.0651 39.139 47.6997 62.3342 65 14.4276 16.4753 18.7643 21.3594 24.3552 27.8986 32.2352 37.8262 45.7062 59.1771 65 15.341 17.4399 19.7862 22.4462 25.517 29.149 33.5942 39.325 47.4021 61.2101 65 16.2908 19.0184 22.0676 25.5246 29.5153 34.2353 40.0122 47.4599 57.9568 65 17.0323 18.9252 21.0413 23.4403 26.2098 29.4854 33.4944 38.6629 45.9475 58.4006 65 17.9793 20.0061 22.2718 24.8405 27.8058 31.3131 35.6056 41.1397 48.9394 62.2733 65 18.7984 21.1234 23.7226 26.6693 30.071 34.0944 39.0187 45.3671 54.3147 65 19.701 21.5896 23.7009 26.0946 28.8578 32.126 36.1259 41.2827 48.5509 60.9758 65 20.7416 23.1332 25.8068 28.8378 32.3369 36.4754 41.5406 48.0707 57.2744 65 21.6843 23.9382 26.4578 29.3143 32.6118 36.512 41.2855 47.4395 56.1132 65 22.6131 24.6181 26.8596 29.4008 32.3344 35.8041 40.0506 45.5254 53.2416 65 23.5059 25.6285 28.0014 30.6916 33.7972 37.4704 41.9659 47.7617 55.9304 65 24.6426 26.8968 29.4167 32.2735 35.5715 39.4722 44.2462 50.401 59.0758 65 25.7752 27.8324 30.1322 32.7395 35.7494 39.3094 43.6664 49.2836 57.2006 65 27.0689 29.1985 31.5791 34.278 37.3936 41.0787 45.5888 51.4034 59.5986 65 28.2019 30.3446 32.7399 35.4555 38.5904 42.2982 46.8362 52.6867 60.9325 65 29.3449 31.4745 33.8553 36.5544 39.6703 43.3556 47.866 53.6809 61.8767 65 30.7977 33.3569 36.2178 39.4613 43.2056 47.6342 53.0544 60.0422 65 32.0336 34.0766 36.3606 38.9499 41.939 45.4744 49.8014 55.3798 63.2421 65 33.229 35.5379 38.1189 41.0451 44.4231 48.4185 53.3084 59.6126 65 34.5802 36.5282 38.7059 41.1748 44.0249 47.3959 51.5216 56.8406 64.3373 65 35.9099 38.2111 40.7837 43.7002 47.067 51.0492 55.923 62.2064 65 37.3244 40.1297 43.2656 46.820