<?xml version="1.0"?><VTKFile type="PolyData" version="0.1" byte_order="LittleEndian">
<PolyData>
<Piece NumberOfLines="87" NumberOfPoints="1179">
<PointData Scalars=" PointData">
<DataArray type="Float32" Name="time" NumberOfComponents="1" format="ascii" >
0 0.0624775 0.12504 0.187687 0.250419 0.313237 0.376141 0.439131 0.502206 0.565368 0.628617 0.691953 0.755375 0.818885 0.835176 0.835179 0.871064 0.893038 0.956738 0.968561 1.00095 1.03991 1.10381 1.15578 1.21985 1.22483 1.289 1.35324 1.37429 1.43866 1.46977 1.52394 1.58852 1.61848 1.68319 1.73552 1.8004 1.80047 1.85025 1.91528 1.94816 2.00569 2.07095 2.0798 2.14517 2.18257 2.24808 2.26335 2.32897 2.36467 2.43044 2.4471 2.51299 2.52267 2.57944 2.64552 2.6524 2.69573 2.76197 2.76321 2.82955 2.84223 2.90868 2.95631 3.00854 3.0528 3.09206 3.11532 3.18217 3.20088 3.26785 3.30824 3.37537 3.44259 3.44923 3.51326 3.58068 3.61064 3.65262 3.69007 3.75776 3.82554 3.84833 3.90053 3.96853 4.00123 4.06938 4.08407 4.15233 4.15825 4.21089 4.27934 4.30917 4.37604 4.42331 4.49208 4.49988 4.50625 4.52643 4.59536 4.65093 4.69298 4.7026 4.77179 4.81064 4.87999 4.90387 4.97336 5.04296 5.05637 5.12609 5.13769 5.18986 5.25978 5.32982 5.36497 5.43516 5.45431 5.50913 5.56964 5.58313 5.65365 5.66312 5.71981 5.79055 5.79573 5.8406 5.91152 5.95051 5.99625 6.06741 6.13868 6.14053 6.21191 6.2834 6.29051 6.36213 6.43385 6.43451 6.50635 6.53816 6.53966 6.59846 6.67055 6.68228 6.71179 6.78406 6.85645 6.88195 6.93204 7.00466 7.07406 7.14691 7.21399 7.28705 7.36023 7.41401 7.48739 7.52493 7.59849 7.67217 7.67452 7.73518 7.80908 7.8463 7.92037 7.94757 7.99741 8.04333 8.10601 8.1805 8.20405 8.27871 8.29468 8.35542 8.43031 8.46256 8.53763 8.56582 8.56582 8.63534 8.70864 8.77228 8.82239 8.85949 8.93522 8.96946 9.04536 9.11718 9.19332 9.24847 9.32484 9.35327 9.4298 9.4455 9.47695 9.5395 9.61635 9.64891 9.72594 9.76584 9.84307 9.92043 9.95941 10 2.83619 3.20743 3.58306 3.96318 4.3479 4.73733 5.13159 5.5308 5.93509 6.34458 6.75942 7.17974 7.60569 8.03743 8.47511 8.9189 9.36897 9.8255 10 2.8362 3.19286 3.5539 3.91945 4.28961 4.66451 5.04425 5.42898 5.81882 6.2139 6.61439 7.02041 7.43214 7.84972 8.27334 8.70316 9.13937 9.58217 10 2.87367 3.32062 3.77288 4.23061 4.69391 5.16294 5.63784 6.11875 6.60584 7.09925 7.59916 8.10574 8.61917 9.13964 9.66734 10 2.89662 3.27722 3.66235 4.05209 4.44658 4.84592 5.25024 5.65965 6.07431 6.49432 6.91985 7.35103 7.78802 8.23098 8.68006 9.13545 9.59732 10 2.9755 3.28836 3.60505 3.92565 4.25028 4.57903 4.91201 5.24933 5.5911 5.93744 6.28848 6.64435 7.00517 7.37109 7.74227 8.11884 8.50096 8.88882 9.28257 9.6824 10 3.00933 3.42279 3.84104 4.26418 4.69233 5.12561 5.56414 6.00806 6.45749 6.91258 7.37347 7.84031 8.31325 8.79246 9.27811 9.77037 10 3.05002 3.47303 3.90118 4.33458 4.77337 5.21768 5.66767 6.12346 6.58523 7.05311 7.52728 8.00791 8.49518 8.98928 9.49039 9.99872 10 3.17107 3.53104 3.89536 4.26416 4.63754 5.01562 5.39851 5.78635 6.17925 6.57735 6.9808 7.38974 7.80432 8.2247 8.65104 9.08351 9.5223 9.96758 10 3.24321 3.55899 3.87837 4.20144 4.52826 4.85894 5.19357 5.53223 5.87504 6.22209 6.57349 6.92935 7.28978 7.65491 8.02485 8.39974 8.7797 9.16489 9.55544 9.95151 10 3.39936 3.76197 4.12893 4.50034 4.87632 5.25698 5.64244 6.03282 6.42824 6.82884 7.23475 7.64613 8.06311 8.48586 8.91453 9.34929 9.79033 10 3.49914 3.8971 4.30003 4.70805 5.12129 5.53988 5.96396 6.39368 6.82919 7.27065 7.71823 8.17209 8.63242 9.0994 9.57323 10 3.55574 3.95666 4.36247 4.77329 5.18925 5.61046 6.03708 6.46924 6.90708 7.35075 7.80042 8.25625 8.7184 9.18707 9.66242 10 3.65455 4.04078 4.43167 4.82734 5.22789 5.63347 6.04419 6.46018 6.88158 7.30854 7.7412 8.17972 8.62426 9.07498 9.53207 9.99569 10 3.77688 4.20395 4.63614 5.07356 5.51635 5.96463 6.41854 6.87823 7.34385 7.81555 8.29349 8.77784 9.26878 9.76648 10 3.84477 4.2663 4.69318 5.12556 5.56358 6.00739 6.45715 6.913 7.37513 7.84371 8.31892 8.80094 9.28999 9.78626 10 3.8968 4.27312 4.65399 5.03951 5.42982 5.82502 6.22524 6.63061 7.04127 7.45735 7.87899 8.30636 8.73961 9.1789 9.62439 10 3.99916 4.48054 4.96769 5.46075 5.95988 6.46521 6.9769 7.49512 8.02004 8.55183 9.09068 9.63676 10 4.05931 4.40896 4.76257 5.12022 5.48201 5.84804 6.21841 6.59322 6.97258 7.3566 7.7454 8.1391 8.53783 8.9417 9.35087 9.76546 10 4.1368 4.52892 4.9257 5.32724 5.73367 6.1451 6.56166 6.98347 7.41067 7.84341 8.28182 8.72606 9.17629 9.63266 10 4.24427 4.60052 4.96122 5.32647 5.69639 6.07111 6.45074 6.83541 7.22527 7.62046 8.02112 8.4274 8.83947 9.25749 9.68165 10 4.32873 4.73792 5.15191 5.57085 5.99483 6.42399 6.85846 7.29836 7.74383 8.19502 8.65208 9.11516 9.58442 10 4.43471 4.75005 5.0694 5.39286 5.72055 6.05257 6.38904 6.73008 7.07581 7.42637 7.7819 8.14253 8.50842 8.87972 9.25659 9.6392 10 4.52092 4.94809 5.38065 5.81874 6.26252 6.71212 7.16771 7.62944 8.09749 8.57202 9.05322 9.54129 10 4.59997 4.97743 5.3591 5.74511 6.13553 6.53048 6.93006 7.33439 7.74356 8.15771 8.57696 9.00143 9.43125 9.86656 10 4.65936 5.00173 5.34824 5.69898 6.05406 6.4136 6.77769 7.14647 7.52006 7.89857 8.28214 8.67091 9.06503 9.46463 9.86988 10 4.73569 5.09257 5.45383 5.81959 6.18996 6.56506 6.94502 7.32995 7.71999 8.11528 8.51597 8.92219 9.33411 9.75189 10 4.78102 5.14206 5.50744 5.87727 6.25164 6.63069 7.01451 7.40325 7.79702 8.19595 8.60019 9.00987 9.42515 9.84618 10 4.85162 5.19761 5.54769 5.90197 6.26054 6.62351 6.99099 7.36309 7.73994 8.12165 8.50835 8.90017 9.29725 9.69974 10 4.93431 5.28206 5.63384 5.98974 6.34986 6.7143 7.08316 7.45656 7.8346 8.2174 8.6051 8.9978 9.39564 9.79876 10 5.0537 5.42818 5.80713 6.19063 6.5788 6.97177 7.36963 7.77253 8.18059 8.59394 9.01272 9.43708 9.86717 10 5.10835 5.50236 5.90097 6.30429 6.71244 7.12553 7.54369 7.96703 8.3957 8.82982 9.26954 9.715 10 5.15467 5.49912 5.84769 6.20048 6.5576 6.91916 7.28527 7.65605 8.03161 8.41208 8.79759 9.18827 9.58427 9.98574 10 5.19577 5.60498 6.01905 6.4381 6.86226 7.29165 7.7264 8.16664 8.61253 9.06419 9.5218 9.98549 10 5.22012 5.54403 5.87199 6.20408 6.54042 6.88112 7.2263 7.57606 7.93054 8.28986 8.65416 9.02358 9.39826 9.77836 10 5.30967 5.62342 5.94101 6.26255 6.58812 6.91785 7.25182 7.59016 7.93297 8.28039 8.63252 8.98951 9.35149 9.71861 10 5.42206 5.75494 6.09179 6.43268 6.77773 7.12704 7.48071 7.83885 8.20158 8.56902 8.94129 9.31851 9.70083 10 5.56967 5.94111 6.31698 6.69738 7.08243 7.47223 7.86691 8.2666 8.67141 9.08149 9.49697 9.918 10 5.63672 5.99589 6.35929 6.72702 7.09919 7.47591 7.85729 8.24345 8.6345 9.03058 9.43181 9.83832 10 5.7387 6.06599 6.3973 6.73272 7.07236 7.41631 7.7647 8.11764 8.47524 8.83764 9.20497 9.57735 9.95493 10 5.78266 6.166 6.55411 6.94713 7.34517 7.74836 8.15683 8.57074 8.99022 9.41542 9.84651 10 5.82188 6.21797 6.61862 7.02396 7.43408 7.8491 8.26915 8.69434 9.12481 9.56068 10 5.98765 6.30479 6.62596 6.95128 7.28084 7.61476 7.95315 8.29614 8.64386 8.99643 9.35399 9.71669 10 6.04233 6.35879 6.67927 7.00386 7.33268 7.66582 8.00342 8.34558 8.69244 9.04413 9.40077 9.76252 10 6.14782 6.57077 6.99867 7.43164 7.86979 8.31326 8.76217 9.21665 9.67686 10 6.2346 6.55782 6.8849 7.21593 7.55101 7.89024 8.23373 8.58157 8.93389 9.2908 9.65243 10 6.31233 6.66068 7.01328 7.37024 7.73167 8.09768 8.46839 8.84391 9.22438 9.60994 10 6.36749 6.72979 7.09622 7.46686 7.84181 8.22118 8.60508 8.9936 9.38687 9.78499 10 6.47048 6.80999 7.15344 7.50093 7.85255 8.20839 8.56856 8.93317 9.30233 9.67615 10 6.54056 6.90527 7.27432 7.64782 8.02588 8.40861 8.79613 9.18857 9.58604 9.98868 10 6.5901 6.93412 7.2821 7.63415 7.99035 8.3508 8.71562 9.0849 9.45876 9.83731 10 6.67036 6.98843 7.31027 7.63599 7.96568 8.29943 8.63735 8.97954 9.32612 9.67719 10 6.67704 7.05505 7.43764 7.82492 8.21701 8.61402 9.01608 9.42333 9.83589 10 6.6982 7.08402 7.47421 7.86887 8.26811 8.67203 9.08075 9.49438 9.91304 10 6.8287 7.18047 7.53657 7.89712 8.26222 8.632 9.00658 9.38607 9.77062 10 6.87279 7.20892 7.54901 7.89315 8.24144 8.59398 8.95088 9.31225 9.67819 10 6.88288 7.20512 7.53127 7.86142 8.19566 8.53411 8.87687 9.22405 9.57577 9.93215 10 6.99615 7.37576 7.75971 8.14808 8.54098 8.93851 9.34079 9.74794 10 7.09391 7.44321 7.7966 8.15417 8.51602 8.88226 9.25299 9.62832 10 7.25384 7.67763 8.10649 8.54052 8.97987 9.42465 9.87501 10 7.33914 7.7123 8.09004 8.47249 8.85977 9.25199 9.64928 10 7.39386 7.78985 8.19045 8.59577 9.00593 9.42102 9.84119 10 7.57756 7.91689 8.26046 8.60838 8.96077 9.31773 9.67939 10 7.67129 8.08279 8.49915 8.92051 9.34697 9.77866 10 7.72881 8.12813 8.53216 8.94101 9.35481 9.77368 10 7.79231 8.16718 8.54639 8.93004 9.31825 9.71112 10 7.80646 8.1597 8.51728 8.87932 9.24591 9.61719 9.99327 10 7.89041 8.33903 8.7932 9.25307 9.71878 10 7.94991 8.32062 8.69597 9.07608 9.46106 9.85106 10 8.0296 8.37279 8.72008 9.07158 9.42738 9.7876 10 8.07669 8.49143 8.91115 9.33599 9.76606 10 8.19207 8.49749 8.80656 9.11938 9.43602 9.7566 10 8.24009 8.62721 9.01908 9.41582 9.81756 10 8.39157 8.85461 9.32313 9.79727 10 8.54907 8.95024 9.3561 9.76675 10 8.70031 9.14217 9.58954 10 8.80919 9.30955 9.81588 10 8.81076 9.18402 9.56176 9.94411 10 8.87253 9.28907 9.71053 10 8.9606 9.29518 9.634 9.97716 10 8.9916 9.4018 9.81668 10 9.1704 9.51307 9.86001 10 9.22304 9.61526 10 9.37231 9.72643 10 9.51939 9.90209 10 9.72969 10 9.84634 10 
</DataArray>

</PointData>
<CellData Scalars=" CellData">
<DataArray type="Float32" Name="radius" NumberOfComponents="1" format="ascii" >
0.128264 0.0370415 0.0400588 0.0386677 0.034413 0.0425361 0.0399392 0.0525746 0.0369415 0.037821 0.0314571 0.0327628 0.0320975 0.0374311 0.0412677 0.0380199 0.0431426 0.0432433 0.0376202 0.0402622 0.0394876 0.0485361 0.0378893 0.040191 0.0463956 0.0405121 0.0324794 0.0350695 0.0338351 0.0411592 0.037276 0.0371387 0.0379075 0.0382799 0.0435736 0.0392787 0.0388752 0.0430354 0.0351297 0.0412735 0.0361607 0.0326037 0.0428688 0.0371572 0.0339737 0.0393964 0.0381266 0.043395 0.0405568 0.0408323 0.0387219 0.0367022 0.0413692 0.037476 0.0453023 0.0447373 0.0406628 0.0413471 0.0346775 0.0408669 0.0415546 0.0392366 0.0398406 0.0346019 0.042233 0.0445255 0.0441548 0.0408634 0.0354162 0.03854 0.0397057 0.0386064 0.0454652 0.0312209 0.0428011 0.0363392 0.0348101 0.0438069 0.0378062 0.0419951 0.0547403 0.0437094 0.0411566 0.0492918 0.045308 0.0423348 0.042335 
</DataArray>
<DataArray type="Float32" Name="subType" NumberOfComponents="1" format="ascii" >
1 2 2 2 2 2 2 2 2 2 2 2 2 2 2 2 2 2 2 2 2 2 2 2 2 2 2 2 2 2 2 2 2 2 2 2 2 2 2 2 2 2 2 2 2 2 2 2 2 2 2 2 2 2 2 2 2 2 2 2 2 2 2 2 2 2 2 2 2 2 2 2 2 2 2 2 2 2 2 2 2 2 2 2 2 2 2 
</DataArray>
<DataArray type="Float32" Name="creationTime" NumberOfComponents="1" format="ascii" >
0 2.83619 2.8362 2.87367 2.89662 2.9755 3.00933 3.05002 3.17107 3.24321 3.39936 3.49914 3.55574 3.65455 3.77688 3.84477 3.8968 3.99916 4.05931 4.1368 4.24427 4.32873 4.43471 4.52092 4.59997 4.65936 4.73569 4.78102 4.85162 4.93431 5.0537 5.10835 5.15467 5.19577 5.22012 5.30967 5.42206 5.56967 5.63672 5.7387 5.78266 5.82188 5.98765 6.04233 6.14782 6.2346 6.31233 6.36749 6.47048 6.54056 6.5901 6.67036 6.67704 6.6982 6.8287 6.87279 6.88288 6.99615 7.09391 7.25384 7.33914 7.39386 7.57756 7.67129 7.72881 7.79231 7.80646 7.89041 7.94991 8.0296 8.07669 8.19207 8.24009 8.39157 8.54907 8.70031 8.80919 8.81076 8.87253 8.9606 8.9916 9.1704 9.22304 9.37231 9.51939 9.72969 9.84634 
</DataArray>

</CellData>
<Points>
<DataArray type="Float32" Name="Coordinates" NumberOfComponents="3" format="ascii" >
0 0 -3 -0.0408557 -0.00146205 -3.19578 -0.080109 -0.00893366 -3.39174 -0.0843823 -0.0318014 -3.59039 -0.0849536 -0.0594506 -3.78847 -0.0868791 -0.0870722 -3.98654 -0.0330975 -0.0906323 -4.17914 0.0124563 -0.111116 -4.3728 0.0358692 -0.120542 -4.5712 0.0348038 -0.11426 -4.7711 0.0595253 -0.137318 -4.96822 0.0621134 -0.156302 -5.16731 0.0615099 -0.154897 -5.3673 0.0555858 -0.147917 -5.56709 0.054899 -0.145748 -5.6183 0.0548989 -0.145748 -5.61831 0.0515575 -0.133533 -5.73043 0.0519353 -0.121815 -5.79849 0.0997573 -0.113451 -5.99251 0.105649 -0.114001 -6.02912 0.119711 -0.113964 -6.12969 0.113157 -0.100284 -6.25082 0.109257 -0.0881215 -6.45041 0.101182 -0.100039 -6.61223 0.0702391 -0.0973103 -6.80981 0.0676092 -0.0979463 -6.82512 0.0230948 -0.0688263 -7.01792 -0.0234906 -0.00967648 -7.20321 -0.0341728 0.00302838 -7.26651 0.00388189 0.0198775 -7.46214 0.0164999 0.0119191 -7.55755 0.0339701 0.00465683 -7.72445 0.0221947 0.0315924 -7.92228 0.00210559 0.0524921 -8.01034 -0.0476838 0.0185357 -8.20105 -0.088173 -0.0276161 -8.35045 -0.145443 -0.0743953 -8.53628 -0.145507 -0.0744474 -8.53649 -0.19118 -0.110662 -8.67823 -0.241825 -0.164837 -8.86397 -0.254615 -0.177198 -8.96338 -0.303554 -0.200725 -9.13139 -0.351913 -0.193946 -9.32534 -0.356286 -0.193089 -9.35208 -0.39645 -0.182614 -9.54773 -0.391617 -0.173265 -9.66158 -0.374133 -0.16459 -9.86063 -0.371191 -0.162608 -9.90705 -0.350672 -0.148587 -10.1055 -0.336832 -0.156007 -10.2131 -0.297206 -0.162981 -10.409 -0.281253 -0.174802 -10.4555 -0.224722 -0.212556 -10.6436 -0.216454 -0.218087 -10.6713 -0.1916 -0.234445 -10.8407 -0.188162 -0.221959 -11.0403 -0.187036 -0.219611 -11.061 -0.177509 -0.206271 -11.1909 -0.154676 -0.175736 -11.3873 -0.154315 -0.175285 -11.3909 -0.134772 -0.15104 -11.5885 -0.13061 -0.150167 -11.6265 -0.130674 -0.137037 -11.826 -0.121551 -0.132036 -11.9688 -0.113262 -0.125655 -12.1253 -0.0980068 -0.110062 -12.2563 -0.0852856 -0.102863 -12.373 -0.0729347 -0.104338 -12.4416 -0.054249 -0.0852532 -12.6398 -0.0489142 -0.0785041 -12.695 -0.0322674 -0.0784989 -12.8943 -0.002512 -0.065972 -13.0104 0.0846375 -0.0434451 -13.189 0.134802 -0.017179 -13.3808 0.138204 -0.0158472 -13.4002 0.170617 0.00735416 -13.5862 0.248123 -0.004294 -13.7702 0.265928 -0.0293737 -13.8534 0.284772 -0.114181 -13.9423 0.301908 -0.190196 -14.0211 0.329362 -0.32355 -14.1676 0.307491 -0.485655 -14.2827 0.300414 -0.536003 -14.3266 0.285756 -0.633992 -14.4441 0.313416 -0.744825 -14.6083 0.336323 -0.801481 -14.6824 0.404127 -0.890308 -14.8483 0.420871 -0.907348 -14.8841 0.500149 -0.914083 -15.0676 0.507132 -0.914439 -15.0835 0.547911 -0.924841 -15.2316 0.591897 -0.937399 -15.4263 0.616393 -0.935275 -15.5098 0.667492 -0.940507 -15.6979 0.714796 -0.946615 -15.827 0.779754 -0.970418 -16.0146 0.785549 -0.97283 -16.0364 0.788903 -0.976538 -16.0542 0.801146 -0.984748 -16.111 0.843405 -1.01267 -16.3045 0.878179 -1.01357 -16.4617 0.907882 -1.00694 -16.5795 0.91419 -1.00487 -16.6066 0.916142 -1.04343 -16.8028 0.9135 -1.08996 -16.9048 0.883696 -1.1379 -17.0967 0.872743 -1.15246 -17.163 0.856212 -1.20071 -17.3564 0.852945 -1.24179 -17.5521 0.852971 -1.25077 -17.5895 0.912378 -1.29246 -17.7759 0.922353 -1.2995 -17.8068 0.9721 -1.30639 -17.9476 1.04376 -1.3115 -18.1342 1.10926 -1.35861 -18.3172 1.14487 -1.38774 -18.4063 1.20654 -1.44478 -18.5878 1.22791 -1.4565 -18.6366 1.30253 -1.4807 -18.7713 1.39305 -1.4934 -18.9169 1.40792 -1.49334 -18.9522 1.48403 -1.49586 -19.1371 1.49425 -1.49617 -19.1619 1.54591 -1.47576 -19.3125 1.60837 -1.43953 -19.499 1.61241 -1.43686 -19.5129 1.6379 -1.45652 -19.6354 1.66974 -1.44034 -19.8322 1.68521 -1.4362 -19.9408 1.70157 -1.42853 -20.0683 1.72759 -1.41685 -20.2662 1.74831 -1.41705 -20.4651 1.74892 -1.41703 -20.4703 1.73992 -1.45009 -20.6673 1.66783 -1.49057 -20.8494 1.66108 -1.49553 -20.8674 1.58565 -1.55527 -21.0428 1.51451 -1.60927 -21.2217 1.51387 -1.60976 -21.2234 1.48816 -1.63097 -21.4206 1.48022 -1.63562 -21.5085 1.47977 -1.63594 -21.5127 1.46863 -1.64605 -21.6753 1.46695 -1.64208 -21.8753 1.46462 -1.64209 -21.9077 1.46428 -1.64646 -21.9893 1.4654 -1.65798 -22.189 1.45086 -1.6666 -22.3883 1.43709 -1.67428 -22.4569 1.43914 -1.69037 -22.5941 1.41034 -1.71607 -22.7903 1.4057 -1.73066 -22.9805 1.40127 -1.74624 -23.1799 1.41407 -1.76571 -23.3623 1.41739 -1.78048 -23.5617 1.4026 -1.77223 -23.761 1.39178 -1.76621 -23.9072 1.38283 -1.76746 -24.107 1.38717 -1.75733 -24.2086 1.37072 -1.77162 -24.4074 1.35447 -1.78589 -24.6062 1.35406 -1.78641 -24.6126 1.35697 -1.81111 -24.7751 1.3606 -1.84125 -24.9728 1.33012 -1.8715 -25.0638 1.27033 -1.93191 -25.2448 1.25114 -1.95151 -25.3128 1.22836 -1.96489 -25.4445 1.19197 -1.99188 -25.5595 1.15579 -1.99706 -25.724 1.12625 -2.00845 -25.9215 1.11332 -2.01643 -25.9828 1.07127 -2.03943 -26.177 1.06076 -2.04464 -26.2181 1.02713 -2.07039 -26.3749 0.985095 -2.10856 -26.5667 0.970048 -2.11636 -26.651 0.914807 -2.15275 -26.8397 0.892876 -2.16221 -26.9108 0.892873 -2.16221 -26.9109 0.839215 -2.18537 -27.0862 0.794198 -2.22166 -27.2719 0.755071 -2.24424 -27.4344 0.729615 -2.26702 -27.5626 0.704829 -2.27891 -27.6568 0.638608 -2.24544 -27.8425 0.597999 -2.2473 -27.9232 0.507498 -2.21118 -28.0978 0.435144 -2.17679 -28.2689 0.36185 -2.13846 -28.451 0.312405 -2.12828 -28.5866 0.319204 -2.06142 -28.775 0.325664 -2.03461 -28.844 0.344845 -2.00278 -29.0405 0.348775 -1.99626 -29.0808 0.349918 -1.98267 -29.1617 0.344521 -1.95161 -29.3217 0.337678 -1.91269 -29.5177 0.31585 -1.89782 -29.5981 0.276355 -1.87725 -29.7931 0.273238 -1.86849 -29.8962 0.379731 -1.86366 -30.0654 0.483189 -1.82614 -30.2324 0.495173 -1.82473 -30.3324 0.514525 -1.81033 -30.4342 0.054899 -0.145748 -5.6183 0.169601 -0.268257 -5.72708 0.262685 -0.375476 -5.86794 0.343813 -0.478485 -6.01896 0.417313 -0.554192 -6.18886 0.487312 -0.609392 -6.36789 0.527578 -0.641394 -6.56117 0.576088 -0.641024 -6.75519 0.619016 -0.650848 -6.95029 0.639018 -0.682617 -7.14673 0.632736 -0.762292 -7.33007 0.638305 -0.8439 -7.51258 0.647552 -0.913133 -7.69998 0.66019 -0.977231 -7.88901 0.64982 -1.03011 -8.08161 0.644823 -1.04449 -8.28103 0.639171 -1.05951 -8.48039 0.628559 -1.07692 -8.67935 0.626386 -1.07536 -8.75499 0.0548989 -0.145748 -5.61831 -0.0786135 -0.229432 -5.74148 -0.171208 -0.22993 -5.91875 -0.267698 -0.234364 -6.09388 -0.324431 -0.242129 -6.28551 -0.365813 -0.229973 -6.4808 -0.375724 -0.204258 -6.67889 -0.383682 -0.176559 -6.87681 -0.377455 -0.157775 -7.07583 -0.363537 -0.156709 -7.27534 -0.356153 -0.145879 -7.47491 -0.381038 -0.15965 -7.67288 -0.360262 -0.188547 -7.86968 -0.346042 -0.202126 -8.06871 -0.347399 -0.214584 -8.26832 -0.343261 -0.219331 -8.46822 -0.358852 -0.230316 -8.66731 -0.364941 -0.238139 -8.86707 -0.362072 -0.231984 -9.05291 0.0515575 -0.133533 -5.73043 -0.0901796 -0.131472 -5.87152 -0.230244 -0.12818 -6.01425 -0.345864 -0.112593 -6.1767 -0.432351 -0.145096 -6.35408 -0.463281 -0.228803 -6.53307 -0.467685 -0.306159 -6.71745 -0.479349 -0.292484 -6.91664 -0.515208 -0.286062 -7.11329 -0.51512 -0.288663 -7.31328 -0.505035 -0.294562 -7.51293 -0.479377 -0.314858 -7.71024 -0.454371 -0.333416 -7.9078 -0.426262 -0.353664 -8.10478 -0.420273 -0.3693 -8.30408 -0.419945 -0.375966 -8.42855 0.0519353 -0.121815 -5.79849 0.0287842 0.0368831 -5.91798 0.0134476 0.192715 -6.04241 -0.000932922 0.337278 -6.17986 -0.0206031 0.480009 -6.31858 -0.0255859 0.577781 -6.49298 -0.0284707 0.656981 -6.6766 -0.0969903 0.673295 -6.86379 -0.105809 0.724731 -7.05686 -0.107652 0.773813 -7.25074 -0.0914996 0.807692 -7.44718 -0.0947834 0.814092 -7.64706 -0.072955 0.818213 -7.84582 -0.0701208 0.822191 -8.04576 -0.0758263 0.816846 -8.24561 -0.0738001 0.807783 -8.44539 -0.0898968 0.819944 -8.64437 -0.0955627 0.82322 -8.8163 0.105649 -0.114001 -6.02912 0.00497278 -0.23473 -6.15277 -0.0846056 -0.357204 -6.28306 -0.159058 -0.448423 -6.44473 -0.227408 -0.543898 -6.60663 -0.268084 -0.649739 -6.77138 -0.304299 -0.71929 -6.95537 -0.331464 -0.785523 -7.14212 -0.329294 -0.821557 -7.33884 -0.30921 -0.825596 -7.53778 -0.312709 -0.831035 -7.73768 -0.313979 -0.82208 -7.93747 -0.313964 -0.812257 -8.13723 -0.326309 -0.788156 -8.33539 -0.336119 -0.750919 -8.53165 -0.338861 -0.738509 -8.73124 -0.36022 -0.727593 -8.9298 -0.375443 -0.722026 -9.12914 -0.39175 -0.715363 -9.32837 -0.395003 -0.70597 -9.52812 -0.386626 -0.718029 -9.68411 0.119711 -0.113964 -6.12969 -0.0130951 -0.152188 -6.27427 -0.137033 -0.174895 -6.42958 -0.220211 -0.200339 -6.60968 -0.293142 -0.167401 -6.79297 -0.369625 -0.142174 -6.97604 -0.389374 -0.145426 -7.17504 -0.403802 -0.156196 -7.37422 -0.421789 -0.185922 -7.57118 -0.425424 -0.199591 -7.77068 -0.42933 -0.212072 -7.97025 -0.447135 -0.226362 -8.16895 -0.449343 -0.245285 -8.36804 -0.436736 -0.252572 -8.56751 -0.415779 -0.259014 -8.7663 -0.394826 -0.265456 -8.9651 -0.393734 -0.268395 -9.05741 0.113157 -0.100284 -6.25082 0.135093 0.0276113 -6.40301 0.203015 0.119888 -6.56694 0.223257 0.187534 -6.75406 0.240376 0.2544 -6.94177 0.256339 0.31966 -7.13015 0.317419 0.313966 -7.32051 0.352663 0.319174 -7.51731 0.382403 0.316352 -7.71507 0.414503 0.289597 -7.91065 0.403841 0.253378 -8.10705 0.427704 0.243076 -8.30536 0.408314 0.2559 -8.504 0.394966 0.259039 -8.70353 0.416779 0.256294 -8.90232 0.430156 0.258108 -9.10186 0.430188 0.258111 -9.10236 0.101182 -0.100039 -6.61223 0.275237 -0.116856 -6.7093 0.438112 -0.139856 -6.82307 0.584929 -0.125864 -6.95815 0.712113 -0.133467 -7.11232 0.797977 -0.160165 -7.29097 0.88436 -0.15245 -7.47118 0.940199 -0.142554 -7.66297 0.921733 -0.127377 -7.86154 0.902262 -0.135141 -8.06044 0.85831 -0.152508 -8.25478 0.84374 -0.16748 -8.45368 0.819448 -0.148805 -8.65132 0.841374 -0.142761 -8.85002 0.844933 -0.132292 -9.04972 0.837032 -0.122502 -9.24932 0.848825 -0.12305 -9.44897 0.862382 -0.12437 -9.64851 0.862793 -0.125425 -9.66291 0.0676092 -0.0979463 -6.82512 0.195487 -0.0934706 -6.97883 0.251622 -0.0595592 -7.16778 0.273783 -0.0261068 -7.36371 0.275456 -0.032536 -7.5636 0.294023 -0.0217064 -7.76244 0.299112 -0.00301842 -7.9615 0.332176 0.00350032 -8.15864 0.344121 0.0104751 -8.35816 0.347739 0.0250509 -8.5576 0.352806 0.0403273 -8.75695 0.33415 0.0646768 -8.95458 0.304014 0.0581379 -9.15219 0.321599 0.0755933 -9.35065 0.305507 0.0661742 -9.54978 0.28003 0.0521438 -9.74765 0.250443 0.0408565 -9.94513 0.221579 0.0353696 -10.143 0.211844 0.0348859 -10.3427 0.199908 0.0287527 -10.5423 0.199132 0.0298931 -10.5665 -0.0341728 0.00302838 -7.26651 -0.195965 -0.0555411 -7.36846 -0.347412 -0.116889 -7.48379 -0.457036 -0.17331 -7.64127 -0.533007 -0.165876 -7.82612 -0.608825 -0.156998 -8.01098 -0.647407 -0.162667 -8.20715 -0.672961 -0.169449 -8.40539 -0.678379 -0.17809 -8.60513 -0.684607 -0.189613 -8.8047 -0.725249 -0.202855 -9.00008 -0.717661 -0.235721 -9.19721 -0.730953 -0.232562 -9.39675 -0.749597 -0.22128 -9.59556 -0.769051 -0.213448 -9.79445 -0.778882 -0.215862 -9.9942 -0.788963 -0.216184 -10.1939 -0.79502 -0.223954 -10.2875 0.0164999 0.0119191 -7.55755 -0.031812 0.145707 -7.69815 -0.0809745 0.279746 -7.83821 -0.142675 0.384565 -7.99697 -0.150901 0.480649 -8.17219 -0.146789 0.560108 -8.35568 -0.144059 0.640451 -8.53881 -0.181337 0.708204 -8.72326 -0.206626 0.677696 -8.91929 -0.261553 0.644649 -9.10874 -0.306948 0.607689 -9.29998 -0.352033 0.583194 -9.49329 -0.366029 0.578339 -9.69274 -0.378688 0.573258 -9.89227 -0.391529 0.514861 -10.0831 -0.38776 0.462913 -10.253 0.0339701 0.00465683 -7.72445 -0.109974 0.0680786 -7.84797 -0.217382 0.105717 -8.01243 -0.325111 0.142857 -8.17679 -0.428572 0.192358 -8.34064 -0.516485 0.258434 -8.50769 -0.58662 0.286134 -8.69293 -0.624345 0.361752 -8.8742 -0.617719 0.386396 -9.07256 -0.611287 0.410585 -9.27099 -0.606618 0.404836 -9.47085 -0.607654 0.400247 -9.6708 -0.629986 0.388784 -9.86921 -0.625494 0.367468 -10.068 -0.621076 0.373952 -10.2679 -0.631173 0.377478 -10.4078 0.00210559 0.0524921 -8.01034 -0.0611971 -0.102556 -8.11967 -0.0851072 -0.221312 -8.27881 -0.102535 -0.328913 -8.4465 -0.136264 -0.347615 -8.64274 -0.152983 -0.3633 -8.84142 -0.15601 -0.376488 -9.04097 -0.158948 -0.391328 -9.24039 -0.163184 -0.408017 -9.43965 -0.167697 -0.425653 -9.63882 -0.189331 -0.415694 -9.8374 -0.167395 -0.409721 -10.0361 -0.157993 -0.412453 -10.2359 -0.127727 -0.397985 -10.433 -0.0836721 -0.414671 -10.6274 -0.0504338 -0.395115 -10.8236 -0.0501259 -0.394931 -10.8255 -0.088173 -0.0276161 -8.35045 0.00740334 -0.0272599 -8.52614 0.0800503 -0.016614 -8.71217 0.130119 -0.00212698 -8.90526 0.168241 0.0354853 -9.09796 0.162967 0.0385755 -9.29786 0.150501 0.0380787 -9.49747 0.142127 0.00039637 -9.69371 0.133285 0.027711 -9.89164 0.144672 0.0492103 -10.0902 0.155231 0.0694422 -10.2889 0.168887 0.0963237 -10.4866 0.15031 0.14206 -10.6804 0.14598 0.186278 -10.8754 0.14601 0.187032 -10.9683 -0.145507 -0.0744474 -8.53649 -0.151139 -0.268012 -8.5865 -0.166855 -0.46352 -8.62561 -0.154572 -0.646628 -8.70511 -0.120518 -0.826141 -8.78644 -0.0721405 -0.988969 -8.89202 -0.00157766 -1.09455 -9.04653 0.0680099 -1.12402 -9.23171 0.123892 -1.15178 -9.42172 0.170128 -1.17713 -9.61465 0.204566 -1.17889 -9.81165 0.233546 -1.18831 -10.0093 0.267557 -1.196 -10.2063 0.29438 -1.20031 -10.4044 0.298828 -1.21372 -10.4885 -0.19118 -0.110662 -8.67823 -0.336394 -0.247174 -8.69489 -0.458529 -0.404359 -8.71428 -0.541685 -0.569189 -8.79119 -0.566369 -0.747268 -8.87882 -0.607917 -0.866051 -9.03427 -0.594679 -0.963802 -9.20825 -0.577496 -1.04815 -9.38877 -0.540095 -1.13399 -9.56551 -0.493756 -1.19885 -9.74893 -0.442807 -1.24598 -9.9365 -0.434571 -1.2867 -10.1321 -0.442897 -1.29134 -10.3319 -0.441184 -1.30533 -10.5314 -0.415262 -1.32234 -10.729 -0.40797 -1.33483 -10.8948 -0.254615 -0.177198 -8.96338 -0.330459 -0.059402 -9.10611 -0.406359 0.0283553 -9.26901 -0.458253 0.113848 -9.44221 -0.507496 0.192852 -9.61923 -0.555188 0.270198 -9.79739 -0.610354 0.284329 -9.98911 -0.605186 0.290176 -10.189 -0.602543 0.275296 -10.3884 -0.602997 0.258978 -10.5877 -0.610981 0.238239 -10.7865 -0.617361 0.216523 -10.9852 -0.608061 0.218838 -11.1164 -0.303554 -0.200725 -9.13139 -0.237172 -0.237319 -9.31647 -0.177436 -0.269079 -9.50468 -0.112828 -0.299211 -9.69154 -0.0659378 -0.339635 -9.88172 -0.0480397 -0.387864 -10.075 -0.0306813 -0.432409 -10.2692 -0.0307787 -0.440793 -10.469 -0.0319483 -0.44151 -10.669 -0.0340493 -0.442976 -10.869 -0.0309976 -0.449226 -11.0689 -0.0171137 -0.438317 -11.2681 0.0176375 -0.438708 -11.465 -0.0151691 -0.436074 -11.6623 -0.0487694 -0.431392 -11.8594 -0.0436779 -0.408446 -12.058 -0.0438788 -0.398657 -12.1696 -0.356286 -0.193089 -9.35208 -0.347237 -0.35017 -9.47555 -0.296394 -0.471263 -9.62638 -0.225123 -0.543095 -9.7989 -0.212914 -0.605241 -9.9886 -0.246096 -0.627661 -10.1846 -0.297798 -0.655949 -10.3757 -0.353442 -0.664632 -10.5676 -0.396013 -0.653003 -10.7627 -0.432017 -0.639108 -10.9589 -0.469944 -0.624774 -11.1547 -0.467507 -0.582749 -11.3503 -0.467383 -0.548548 -11.5473 -0.478481 -0.530804 -11.7462 -0.462693 -0.557621 -11.9022 -0.391617 -0.173265 -9.66158 -0.538043 -0.0732858 -9.75412 -0.684334 0.0261655 -9.84744 -0.789236 0.121539 -9.9885 -0.897474 0.207945 -10.1328 -1.00238 0.220395 -10.3026 -1.10934 0.220147 -10.4716 -1.21636 0.220304 -10.6406 -1.32765 0.206466 -10.8062 -1.4268 0.222172 -10.9791 -1.51578 0.255693 -11.1551 -1.56205 0.290751 -11.3465 -1.57444 0.324814 -11.5432 -1.5973 0.35043 -11.7402 -1.62238 0.371196 -11.9375 -1.63298 0.389521 -12.0842 -0.371191 -0.162608 -9.90705 -0.456812 -0.25235 -10.0639 -0.501885 -0.337498 -10.2392 -0.534586 -0.402732 -10.4254 -0.566923 -0.467741 -10.6118 -0.590203 -0.500438 -10.8077 -0.602372 -0.529946 -11.0051 -0.60667 -0.556044 -11.2034 -0.608203 -0.583745 -11.4015 -0.615402 -0.589395 -11.6012 -0.616034 -0.588034 -11.8012 -0.616943 -0.587242 -12.0012 -0.619978 -0.587383 -12.2012 -0.607867 -0.59897 -12.3753 -0.336832 -0.156007 -10.2131 -0.478391 -0.217779 -10.3401 -0.617349 -0.271177 -10.4737 -0.730022 -0.320726 -10.6313 -0.815596 -0.337934 -10.8113 -0.895775 -0.342523 -10.9944 -0.948861 -0.364447 -11.186 -0.999295 -0.387328 -11.3782 -1.03135 -0.410128 -11.5743 -1.04632 -0.442516 -11.7711 -1.06212 -0.469045 -11.9687 -1.07411 -0.478725 -12.1681 -1.06759 -0.495968 -12.3672 -1.0606 -0.511925 -12.5665 -1.0569 -0.519295 -12.7663 -1.06497 -0.503338 -12.9655 -1.04679 -0.488371 -13.1498 -0.281253 -0.174802 -10.4555 -0.248716 -0.0261857 -10.5854 -0.212711 0.121764 -10.715 -0.183235 0.24985 -10.8658 -0.154005 0.373055 -11.0206 -0.107937 0.472287 -11.188 -0.0523852 0.549175 -11.3641 -0.0409492 0.629355 -11.547 -0.0348836 0.721736 -11.7242 -0.0270724 0.799822 -11.9082 0.0019548 0.847094 -12.1004 0.0327475 0.854005 -12.2978 0.0625992 0.881051 -12.4788 -0.216454 -0.218087 -10.6713 -0.0394985 -0.135258 -10.714 0.135519 -0.0493443 -10.7586 0.279794 0.0728102 -10.8239 0.418014 0.196811 -10.8982 0.539837 0.330152 -10.9841 0.657005 0.447231 -11.0962 0.744484 0.560291 -11.236 0.820003 0.681922 -11.3757 0.924383 0.776057 -11.518 0.996884 0.862965 -11.6829 1.07248 0.941461 -11.8506 1.1177 0.992742 -12.0385 1.15937 1.05201 -12.2249 1.17315 1.07295 -12.2803 -0.1916 -0.234445 -10.8407 -0.305741 -0.334077 -10.9713 -0.413195 -0.423506 -11.1143 -0.523026 -0.51974 -11.251 -0.589032 -0.625602 -11.4073 -0.681961 -0.695478 -11.57 -0.804065 -0.737709 -11.7227 -0.923126 -0.780972 -11.8775 -0.990299 -0.830997 -12.0591 -1.01303 -0.889712 -12.2489 -1.04453 -0.9214 -12.4439 -1.07443 -0.949738 -12.6396 -1.10155 -0.972383 -12.8364 -1.11848 -0.999271 -13.0339 -1.11825 -0.997399 -13.2339 -1.11767 -0.997042 -13.2975 -0.187036 -0.219611 -11.061 -0.313285 -0.295065 -11.1965 -0.411192 -0.320736 -11.369 -0.482512 -0.362095 -11.5512 -0.499999 -0.373495 -11.7501 -0.515931 -0.389094 -11.9489 -0.530869 -0.402548 -12.1479 -0.548531 -0.390099 -12.3467 -0.552535 -0.377357 -12.5463 -0.552563 -0.402317 -12.7447 -0.549327 -0.418752 -12.944 -0.538928 -0.392933 -13.1421 -0.533671 -0.363578 -13.3398 -0.528243 -0.337135 -13.538 -0.527921 -0.319881 -13.6541 -0.177509 -0.206271 -11.1909 -0.17154 -0.32202 -11.3539 -0.208866 -0.378262 -11.5422 -0.248569 -0.422116 -11.7332 -0.301206 -0.468035 -11.9206 -0.37181 -0.474396 -12.1077 -0.394342 -0.496336 -12.3052 -0.423357 -0.507564 -12.5027 -0.428645 -0.53097 -12.7013 -0.432927 -0.542459 -12.9009 -0.432765 -0.56107 -13.1 -0.424921 -0.564982 -13.2999 -0.426495 -0.567797 -13.4998 -0.426111 -0.575974 -13.6997 -0.42113 -0.577877 -13.7718 -0.154315 -0.175285 -11.3909 -0.0171049 -0.156992 -11.5353 0.11955 -0.136487 -11.6799 0.234574 -0.121887 -11.8428 0.309078 -0.052824 -12.0151 0.323823 0.0422339 -12.1905 0.379146 0.102937 -12.3728 0.407989 0.145874 -12.566 0.41718 0.180836 -12.7627 0.416914 0.206971 -12.961 0.418876 0.228316 -13.1599 0.418652 0.244969 -13.3592 0.426269 0.246901 -13.559 0.436172 0.253488 -13.7587 0.436927 0.25827 -13.906 -0.13061 -0.150167 -11.6265 -0.209889 -0.284808 -11.7513 -0.257673