<?xml version="1.0"?><VTKFile type="PolyData" version="0.1" byte_order="LittleEndian">
<PolyData>
<Piece NumberOfLines="58" NumberOfPoints="580">
<PointData Scalars=" PointData">
<DataArray type="Float32" Name="time" NumberOfComponents="1" format="ascii" >
0 0.209991 0.726545 1.23527 1.74848 2.26995 2.78813 3.30489 3.8504 4.39089 4.93812 5.46778 6.00021 6.5586 7.1115 7.68718 8.24511 8.82038 9.41742 10.0098 10.6107 11.2039 11.8079 12.4072 13.0314 13.6515 14.2808 14.9231 15.5957 16.2532 16.8939 17.5257 18.1981 18.8837 19.5798 20.2905 20.9938 21.6999 22.4192 23.1662 23.9245 24.6773 25.4181 26.1889 26.9959 27.802 28.5912 29.384 30.2383 31.0744 31.9047 32.7642 33.6079 34.4897 35.3788 36.2672 37.1835 38.0959 39.0466 39.9844 40.9619 41 1.59705 3.2268 5.04871 7.11423 9.49868 12.3189 15.7706 20.2205 26.4924 37.2143 41 2.12541 3.46599 4.96463 6.66365 8.62502 10.9448 13.7841 17.4444 22.6035 31.4229 41 2.64586 3.67867 4.83324 6.14219 7.65326 9.44047 11.6279 14.4479 18.4225 25.2171 41 3.17101 4.46542 5.91246 7.55298 9.44681 11.6867 14.4282 17.9626 22.9439 31.4597 41 3.70471 4.72737 5.87061 7.16671 8.66295 10.4326 12.5985 15.3909 19.3264 26.0544 41 4.23515 5.32323 6.5396 7.9186 9.51054 11.3934 13.6979 16.6688 20.8561 28.0144 41 4.76424 5.98769 7.35539 8.90597 10.696 12.8131 15.4043 18.7448 23.4531 31.502 41 5.32287 6.6323 8.09612 9.75565 11.6714 13.9374 16.7106 20.2859 25.3251 33.9395 41 5.8765 7.15946 8.59368 10.2197 12.0967 14.3168 17.034 20.5371 25.4744 33.9147 41 6.43714 7.59208 8.8832 10.3469 12.0367 14.0353 16.4813 19.6349 24.0795 31.6776 41 6.9799 8.46714 10.1297 12.0146 14.1906 16.7642 19.914 23.9749 29.6983 39.4826 41 7.52561 8.66728 9.94356 11.3905 13.0608 15.0365 17.4544 20.5717 24.9652 32.4761 41 8.09806 9.47494 11.0142 12.7592 14.7736 17.1563 20.0723 23.8318 29.1305 38.1887 41 8.66501 9.7868 11.0409 12.4626 14.1039 16.0451 18.4209 21.4839 25.801 33.1811 41 9.25546 10.653 12.2152 13.9864 16.031 18.4493 21.409 25.2248 30.6029 39.7967 41 9.82784 10.8874 12.0718 13.4147 14.9648 16.7983 19.0423 21.9353 26.0128 32.9833 41 10.4181 11.5152 12.7417 14.1321 15.7372 17.6356 19.9592 22.9547 27.1767 34.3942 41 11.0309 12.1833 13.4715 14.932 16.618 18.6121 21.0526 24.1991 28.6338 36.2149 41 11.6391 12.8657 14.237 15.7916 17.5863 19.7089 22.3068 25.6561 30.3766 38.4464 41 12.2562 13.4054 14.69 16.1465 17.8279 19.8165 22.2504 25.3882 29.8107 37.3711 41 12.8655 14.0211 15.313 16.7776 18.4684 20.4682 22.9157 26.071 30.5183 38.1209 41 13.4861 14.8539 16.3829 18.1164 20.1176 22.4844 25.3813 29.1159 34.3796 41 14.102 15.164 16.3512 17.6972 19.251 21.0887 23.338 26.2377 30.3247 37.3114 41 14.7438 16.0294 17.4665 19.0959 20.9768 23.2014 25.9242 29.4344 34.3819 41 15.3814 16.5025 17.7557 19.1764 20.8166 22.7565 25.1308 28.1917 32.5059 39.881 41 16.0287 17.2628 18.6423 20.2064 22.0119 24.1474 26.761 30.1305 34.8797 41 16.6896 17.9421 19.3421 20.9294 22.7618 24.929 27.5815 31.0012 35.8209 41 17.3819 18.4585 19.6621 21.0266 22.6018 24.4648 26.745 29.6847 33.828 40.911 41 18.0588 19.1346 20.3372 21.7007 23.2747 25.1363 27.4147 30.3522 34.4923 41 18.7186 19.7899 20.9875 22.3453 23.9127 25.7665 28.0354 30.9606 35.0833 41 19.3696 20.5239 21.8144 23.2773 24.9662 26.9638 29.4086 32.5604 37.0028 41 20.0625 21.1646 22.3966 23.7934 25.4059 27.313 29.6472 32.6564 36.8977 41 20.7693 21.6978 22.7358 23.9126 25.2711 26.8779 28.8445 31.3798 34.9531 41 21.4871 22.6679 23.9879 25.4845 27.212 29.2553 31.7561 34.9802 39.5243 41 22.2203 23.4416 24.8068 26.3546 28.1414 30.2547 32.8412 36.1758 40.8757 41 22.9461 24.2077 25.618 27.2169 29.0627 31.2458 33.9177 37.3624 41 23.675 24.8737 26.2138 27.733 29.4868 31.5612 34.0999 37.373 41 24.4179 25.6376 27.0011 28.5469 30.3313 32.4419 35.0251 38.3553 41 25.1897 26.2616 27.4599 28.8184 30.3867 32.2416 34.5118 37.4387 41 25.9734 27.2946 28.7714 30.4458 32.3787 34.6648 37.4628 41 26.7519 27.9076 29.1995 30.6641 32.3549 34.3547 36.8023 39.9578 41 27.5182 28.5462 29.6955 30.9984 32.5025 34.2815 36.4588 39.2658 41 28.3159 29.6964 31.2396 32.9892 35.0089 37.3977 40.3213 41 29.1514 30.4142 31.8258 33.4262 35.2738 37.4589 40.1333 41 29.9864 30.9752 32.0806 33.3337 34.7803 36.4914 38.5855 41 30.8043 32.2196 33.8017 35.5954 37.6661 40.1152 41 31.6263 32.8724 34.2655 35.8448 37.668 39.8244 41 32.5124 33.8471 35.3392 37.0308 38.9836 41 33.3802 34.625 36.0165 37.5941 39.4154 41 34.2424 35.6607 37.2463 39.0438 41 35.1353 36.1018 37.1822 38.4071 39.8211 41 36.0123 37.2735 38.6833 40.2816 41 36.9295 38.2705 39.7697 41 37.8548 39.0066 40.2941 41 38.7799 39.9533 41 39.7346 40.8813 41 40.6859 41 
</DataArray>

</PointData>
<CellData Scalars=" CellData">
<DataArray type="Float32" Name="radius" NumberOfComponents="1" format="ascii" >
0.0387772 0.0260817 0.024496 0.0297562 0.0281853 0.0259329 0.0301368 0.025419 0.0276653 0.0264209 0.0259976 0.0299241 0.0234377 0.0307103 0.0208731 0.0287482 0.0211448 0.0272078 0.0253985 0.0284328 0.0270475 0.0253734 0.0285085 0.0264185 0.0246053 0.0281368 0.0327854 0.029431 0.0289053 0.0298881 0.0285243 0.027454 0.028201 0.0250166 0.0265732 0.0309151 0.0300955 0.0302729 0.0265034 0.0264037 0.0269355 0.0311644 0.0300413 0.0282299 0.0242091 0.0296147 0.0284007 0.019237 0.0251803 0.0281721 0.026804 0.0277151 0.0288272 0.0247283 0.0247732 0.0284301 0.0226892 0.0267742 
</DataArray>
<DataArray type="Float32" Name="subType" NumberOfComponents="1" format="ascii" >
1 2 2 2 2 2 2 2 2 2 2 2 2 2 2 2 2 2 2 2 2 2 2 2 2 2 2 2 2 2 2 2 2 2 2 2 2 2 2 2 2 2 2 2 2 2 2 2 2 2 2 2 2 2 2 2 2 2 
</DataArray>
<DataArray type="Float32" Name="creationTime" NumberOfComponents="1" format="ascii" >
0 1.59705 2.12541 2.64586 3.17101 3.70471 4.23515 4.76424 5.32287 5.8765 6.43714 6.9799 7.52561 8.09806 8.66501 9.25546 9.82784 10.4181 11.0309 11.6391 12.2562 12.8655 13.4861 14.102 14.7438 15.3814 16.0287 16.6896 17.3819 18.0588 18.7186 19.3696 20.0625 20.7693 21.4871 22.2203 22.9461 23.675 24.4179 25.1897 25.9734 26.7519 27.5182 28.3159 29.1514 29.9864 30.8043 31.6263 32.5124 33.3802 34.2424 35.1353 36.0123 36.9295 37.8548 38.7799 39.7346 40.6859 
</DataArray>

</CellData>
<Points>
<DataArray type="Float32" Name="Coordinates" NumberOfComponents="3" format="ascii" >
0 0 -3 -0.00235155 0.00112318 -3.3753 0.0107234 0.00161382 -4.29301 0.0221965 -0.0081987 -5.18929 0.101403 -0.122863 -6.07524 0.204155 -0.159793 -6.97228 0.26848 -0.212425 -7.85881 0.338971 -0.261812 -8.73514 0.365453 -0.235602 -9.65594 0.32661 -0.298482 -10.558 0.290276 -0.291534 -11.4656 0.26035 -0.288295 -12.3365 0.243525 -0.265091 -13.2046 0.211631 -0.265667 -14.1069 0.164847 -0.230861 -14.9909 0.116668 -0.214336 -15.9036 0.0615029 -0.153642 -16.7775 0.0103212 -0.0408299 -17.6656 -0.0714176 0.0511178 -18.5793 0.149957 0.0964604 -19.4565 0.416278 0.142273 -20.3255 0.554148 -0.0061967 -21.1919 0.624553 0.0585888 -22.084 0.627877 0.00110354 -22.9636 0.648879 -0.081031 -23.8689 0.670194 -0.165118 -24.7588 0.662064 -0.217324 -25.6554 0.658481 -0.280933 -26.5605 0.655438 -0.344046 -27.4984 0.603079 -0.547531 -28.3828 0.553104 -0.735733 -29.2375 0.454283 -0.775057 -30.0865 0.556696 -0.819655 -30.9805 0.777875 -0.780123 -31.8607 0.942508 -0.710058 -32.7553 0.961216 -0.973579 -33.6372 1.1597 -0.935229 -34.515 1.23363 -0.865657 -35.4032 1.21025 -0.858914 -36.3033 1.18678 -0.856511 -37.2268 1.18874 -0.883287 -38.1529 1.26331 -0.865035 -39.0583 1.12841 -0.937442 -39.9282 1.08741 -1.22424 -40.7888 0.971472 -1.29758 -41.7171 1.1234 -1.33171 -42.6291 1.2382 -1.34209 -43.5158 1.36345 -1.37457 -44.3931 1.45512 -1.43428 -45.3296 1.48322 -1.37638 -46.2375 1.51004 -1.30644 -47.1262 1.55814 -1.31629 -48.0354 1.70232 -1.26594 -48.9036 1.73619 -1.26695 -49.8116 1.79009 -1.23061 -50.7123 1.76693 -1.1966 -51.6008 1.74426 -1.1975 -52.5045 1.68756 -1.30054 -53.3835 1.67579 -1.39846 -54.2884 1.49557 -1.50577 -55.1475 1.43401 -1.50304 -56.0528 1.43166 -1.50302 -56.0878 -0.00235155 0.00112318 -3.3753 0.216834 -0.929577 -3.08246 0.246058 -1.91837 -2.93606 0.27149 -2.90694 -2.78747 0.292626 -3.89589 -2.64069 0.441316 -4.88475 -2.6468 0.760704 -5.74924 -3.03494 1.10599 -6.6116 -3.40522 1.466 -7.50042 -3.68877 1.99741 -8.28233 -4.01467 2.13041 -8.43848 -4.08579 0.0107234 0.00161382 -4.29301 0.821155 0.561862 -4.46425 1.60893 0.996533 -4.90069 2.41236 1.48136 -5.2463 3.12594 2.02786 -5.68464 3.85289 2.58239 -6.08964 4.42611 3.13763 -6.69224 5.01478 3.61475 -7.3448 5.62958 4.17405 -7.90086 6.09339 4.80886 -8.51883 6.27262 5.12247 -8.90518 0.0221965 -0.0081987 -5.18929 0.0211083 0.982633 -5.32439 0.0456885 1.97882 -5.40809 0.0457949 2.9742 -5.50414 -0.0180748 3.95895 -5.66595 -0.173332 4.92549 -5.87015 -0.348581 5.88849 -6.07489 -0.447732 6.85874 -6.29576 -0.560423 7.82135 -6.54211 -0.556744 8.77909 -6.82972 -0.584552 9.47935 -7.2158 0.101403 -0.122863 -6.07524 0.565831 0.742214 -6.26484 1.05155 1.54753 -6.60476 1.50026 2.38014 -6.92945 2.03698 3.15013 -7.27447 2.56023 3.93329 -7.61043 3.12507 4.60604 -8.0883 3.41098 5.39605 -8.63066 3.53295 6.22933 -9.16987 3.98343 6.92558 -9.72872 4.197 7.35362 -9.97928 0.204155 -0.159793 -6.97228 0.141739 0.805697 -7.22512 -0.0135542 1.73526 -7.55949 -0.227781 2.63844 -7.93147 -0.532343 3.50897 -8.31802 -1.00971 4.15403 -8.91469 -1.33337 4.80328 -9.60296 -1.78312 5.35466 -10.3056 -2.20405 5.80933 -11.0905 -2.66321 6.07771 -11.9374 -3.14873 6.28046 -12.5207 0.26848 -0.212425 -7.85881 0.148373 0.691908 -8.26839 0.120199 1.51276 -8.83884 0.129076 2.30026 -9.45509 0.11685 3.0503 -10.1164 0.10771 3.72119 -10.8579 0.214666 4.43299 -11.5521 0.389858 5.1092 -12.2676 0.777455 5.48889 -13.1076 1.09132 5.81504 -13.9993 1.42765 6.07102 -14.5768 0.338971 -0.261812 -8.73514 -0.347903 0.463944 -8.69664 -0.861231 1.30142 -8.88407 -1.38959 2.13602 -9.03987 -1.94755 2.95113 -9.19571 -2.36466 3.84814 -9.34194 -2.64534 4.7984 -9.47692 -2.88988 5.75483 -9.63642 -2.99614 6.74082 -9.76502 -3.00051 7.69543 -10.0629 -2.95429 8.22354 -10.2391 0.365453 -0.235602 -9.65594 -0.520497 0.195225 -9.48424 -1.18206 0.909446 -9.25571 -1.83353 1.64635 -9.07528 -2.31479 2.51222 -8.93867 -2.86859 3.33846 -8.83557 -3.25712 4.25774 -8.89864 -3.61621 5.14311 -9.19389 -3.93527 5.97577 -9.64652 -4.11826 6.87387 -10.0464 -4.19118 7.25888 -10.2316 0.32661 -0.298482 -10.558 -0.21001 -1.14012 -10.6187 -0.807904 -1.92999 -10.7552 -1.54682 -2.55203 -11.0142 -2.2435 -3.22752 -11.2557 -2.91092 -3.89158 -11.5927 -3.57388 -4.57134 -11.9064 -4.10942 -5.26926 -12.3819 -4.64146 -5.97635 -12.8477 -5.24675 -6.62659 -13.3069 -5.48925 -6.95372 -13.4765 0.290276 -0.291534 -11.4656 -0.403371 0.424598 -11.388 -1.18693 1.0459 -11.3847 -1.92665 1.71404 -11.4648 -2.64852 2.40348 -11.5246 -3.38747 3.0743 -11.5875 -3.99638 3.79162 -11.9262 -4.57663 4.23702 -12.608 -5.15093 4.50249 -13.3824 -5.54318 4.7457 -14.2695 -5.75773 4.80367 -14.7974 0.26035 -0.288295 -12.3365 1.25578 -0.332666 -12.421 2.25506 -0.311517 -12.4527 3.24053 -0.454755 -12.5439 4.22781 -0.576343 -12.6464 5.21904 -0.670237 -12.7394 6.08861 -0.409238 -13.1585 6.97606 -0.197016 -13.5677 7.88343 0.0526003 -13.9059 8.64251 0.237429 -14.5301 8.7166 0.24711 -14.5994 0.243525 -0.265091 -13.2046 1.14696 -0.658219 -13.3756 2.09788 -0.900239 -13.5684 3.05173 -1.13944 -13.75 3.95841 -1.31895 -14.1317 4.86071 -1.44951 -14.5426 5.67098 -1.49513 -15.1268 6.5108 -1.60747 -15.658 7.29293 -1.88035 -16.2181 8.05613 -2.12908 -16.8145 8.47011 -2.26535 -17.1411 0.211631 -0.265667 -14.1069 -0.723681 -0.49631 -14.3752 -1.46263 -0.858386 -14.9434 -2.00032 -1.30207 -15.6604 -2.56706 -1.56266 -16.442 -2.9691 -1.60101 -17.3568 -3.36236 -1.58496 -18.2761 -3.52254 -1.61442 -19.2627 -3.68884 -1.65005 -20.2482 -3.8651 -1.69556 -21.2314 -3.89609 -1.71315 -21.4217 0.164847 -0.230861 -14.9909 0.802985 -0.998481 -15.0504 1.36678 -1.81423 -15.1796 1.99283 -2.55417 -15.4257 2.61125 -3.302 -15.6672 3.24662 -3.99837 -16.0009 3.86795 -4.67013 -16.4042 4.29141 -5.34709 -17.0062 4.71643 -6.02388 -17.6073 5.12207 -6.71422 -18.2064 5.4736 -7.01805 -18.4403 0.116668 -0.214336 -15.9036 -0.0680761 0.767713 -15.9416 -0.376377 1.71301 -16.0483 -0.80443 2.59933 -16.2249 -1.21316 3.48853 -16.4305 -1.71814 4.32778 -16.6321 -2.33957 5.09248 -16.8026 -2.96992 5.82345 -17.064 -3.46701 6.5749 -17.4978 -4.07685 7.19662 -17.9893 -4.1293 7.24791 -18.0356 0.0615029 -0.153642 -16.7775 0.349111 -1.11022 -16.7301 0.655653 -2.0516 -16.8709 0.913039 -3.0052 -17.0271 1.24914 -3.93803 -17.157 1.59841 -4.86896 -17.2637 2.05213 -5.69599 -17.5956 2.59113 -6.46634 -17.9363 3.14808 -7.16551 -18.3846 3.73864 -7.82842 -18.8448 4.01842 -8.15049 -19.1909 0.0103212 -0.0408299 -17.6656 0.533638 0.745698 -17.9935 1.15663 1.42621 -18.3792 1.75559 2.1087 -18.7981 2.12841 2.93249 -19.2252 2.50406 3.74819 -19.6651 2.79048 4.52919 -20.2201 3.06448 5.26423 -20.8403 3.36079 6.02701 -21.415 3.65679 6.79003 -21.9896 3.74201 7.17013 -22.2522 -0.0714176 0.0511178 -18.5793 0.459559 -0.661369 -19.038 0.834216 -1.27244 -19.7353 1.31764 -1.77305 -20.4534 1.85609 -2.08839 -21.2348 2.43641 -2.49182 -21.9423 2.80965 -2.76224 -22.8297 3.09337 -2.92893 -23.774 3.2549 -3.07827 -24.7495 3.3287 -3.09202 -25.7467 3.33285 -3.09706 -26.101 0.149957 0.0964604 -19.4565 0.807423 0.764063 -19.1071 1.50225 1.4124 -18.7959 2.19265 2.11922 -18.6418 2.84934 2.87288 -18.6692 3.43437 3.61602 -18.994 3.99634 4.39338 -19.2766 4.57383 5.17341 -19.5176 5.42141 5.60319 -19.8289 6.24578 6.03988 -20.189 6.40848 6.13104 -20.2523 0.416278 0.142273 -20.3255 1.31149 0.171381 -19.8808 2.2666 0.0484381 -19.6113 3.17687 -0.345213 -19.7396 4.16762 -0.475915 -19.7759 5.14548 -0.6647 -19.8662 6.03694 -1.07663 -20.0549 6.86104 -1.61284 -20.2375 7.59054 -2.28496 -20.3643 8.20969 -3.02565 -20.6251 8.39641 -3.22129 -20.7085 0.554148 -0.0061967 -21.1919 0.710873 0.981229 -21.2126 0.986962 1.93972 -21.1414 1.2075 2.91323 -21.2018 1.61823 3.82468 -21.2255 2.01328 4.73872 -21.3175 2.25239 5.68202 -21.5477 2.21821 6.63971 -21.8335 2.16131 7.58335 -22.1596 1.97383 8.50308 -22.5044 1.92097 8.70575 -22.6015 0.624553 0.0585888 -22.084 0.84302 1.02927 -22.1842 1.07955 1.98901 -22.3357 1.12293 2.9774 -22.4813 1.40977 3.91042 -22.6986 1.66308 4.86165 -22.8746 2.11753 5.72958 -23.0751 2.58328 6.53494 -23.4418 3.09167 7.32522 -23.7838 3.4997 7.93742 -24.0954 0.627877 0.00110354 -22.9636 -0.0714053 -0.658107 -23.2401 -0.824318 -1.2664 -23.4913 -1.58117 -1.87031 -23.7413 -2.24418 -2.28834 -24.3623 -2.82584 -2.60138 -25.1131 -3.41263 -2.9103 -25.8616 -3.92388 -3.29382 -26.6307 -4.48139 -3.62048 -27.3939 -5.10319 -3.68093 -28.1747 -5.29107 -3.7171 -28.4141 0.648879 -0.081031 -23.8689 0.880398 -1.03035 -24.0815 1.05698 -1.96956 -24.376 1.149 -2.94018 -24.5983 1.26004 -3.90704 -24.8282 1.66749 -4.67946 -25.3154 1.99498 -5.42193 -25.8997 2.32438 -6.16522 -26.482 2.62543 -6.7478 -27.237 2.84733 -7.2224 -27.8901 0.670194 -0.165118 -24.7588 1.63795 -0.410491 -24.7018 2.57344 -0.761117 -24.6581 3.55584 -0.947904 -24.655 4.51379 -1.23466 -24.6655 5.46878 -1.48999 -24.8164 6.44764 -1.63139 -24.9642 7.40407 -1.83622 -25.1723 8.22448 -2.33948 -25.4436 9.01451 -2.88097 -25.7311 9.0949 -2.93182 -25.7614 0.662064 -0.217324 -25.6554 -0.175318 0.197633 -26.0112 -0.932935 0.645122 -26.4863 -1.61733 1.26569 -26.8691 -2.11552 1.97937 -27.3615 -2.65362 2.62177 -27.9072 -3.19133 3.24646 -28.4734 -3.73053 3.86284 -29.0473 -4.1948 4.53259 -29.6269 -4.58121 5.04246 -30.1301 0.658481 -0.280933 -26.5605 0.134859 0.570709 -26.5835 -0.600951 1.22813 -26.7459 -1.31013 1.92455 -26.8557 -2.01995 2.62298 -26.9471 -2.8702 3.12831 -27.0945 -3.62585 3.70939 -27.3967 -4.28619 4.13076 -28.0183 -4.95126 4.54727 -28.6382 -5.38587 4.86744 -29.0937 0.655438 -0.344046 -27.4984 1.10288 -1.23425 -27.4128 1.49721 -2.14591 -27.2971 1.73208 -3.11772 -27.3177 1.76805 -4.11377 -27.399 1.74046 -5.09895 -27.5682 2.01955 -5.92828 -28.0523 2.36781 -6.78292 -28.4374 2.83456 -7.45151 -29.0163 3.24641 -8.15623 -29.594 3.24998 -8.16235 -29.599 0.603079 -0.547531 -28.3828 1.42487 -1.05364 -28.6446 2.34667 -1.38908 -28.8389 3.18588 -1.82585 -29.1629 4.03588 -2.16727 -29.564 4.89052 -2.47053 -29.9855 5.76496 -2.57262 -30.4598 6.62545 -2.57679 -30.9692 7.38996 -2.72749 -31.596 8.10868 -2.91319 -32.1769 0.553104 -0.735733 -29.2375 -0.365306 -0.426697 -29.4846 -1.18123 0.088224 -29.7475 -1.99667 0.604276 -30.0097 -2.69366 1.29476 -30.2031 -3.36777 1.96743 -30.5082 -3.92217 2.62702 -31.0158 -4.34892 3.37253 -31.5277 -4.71204 4.02926 -32.1887 -5.00719 4.61368 -32.7801 0.454283 -0.775057 -30.0865 -0.339036 -0.193605 -30.2669 -1.0805 0.440889 -30.4852 -1.98186 0.830109 -30.6751 -2.86476 1.08931 -31.0667 -3.7932 1.06925 -31.4376 -4.68993 0.999568 -31.8747 -5.53284 0.918615 -32.4066 -6.29865 0.960154 -33.0483 -6.78098 0.965573 -33.424 0.556696 -0.819655 -30.9805 0.305377 -1.78681 -30.9425 0.0546358 -2.75441 -30.9126 -0.129246 -3.73572 -30.8558 -0.298977 -4.71833 -30.7806 -0.476101 -5.69831 -30.6897 -0.85116 -6.62196 -30.611 -1.25148 -7.53812 -30.591 -1.64971 -8.45522 -30.5725 -2.02275 -8.95111 -30.7621 0.777875 -0.780123 -31.8607 1.46064 -0.0519332 -31.801 2.22248 0.595133 -31.8312 2.97838 1.21143 -32.0521 3.7344 1.83724 -32.2439 4.46915 2.47423 -32.4771 5.2079 2.78938 -33.0729 5.9875 3.08131 -33.627 6.74417 3.4057 -34.1946 7.5754 3.65586 -34.6768 0.942508 -0.710058 -32.7553 0.350521 -1.27102 -33.3339 -0.244804 -1.74335 -33.9839 -0.588536 -2.1232 -34.8427 -0.870462 -2.17969 -35.8005 -1.2005 -2.27268 -36.7399 -1.56921 -2.27343 -37.6694 -1.60974 -2.42395 -38.6572 -1.606 -2.53904 -39.6506 -1.60054 -2.55391 -39.8968 0.961216 -0.973579 -33.6372 0.0999574 -0.501273 -33.8247 -0.75364 -0.0303338 -34.0474 -1.67911 0.282337 -34.2613 -2.60714 0.581951 -34.4826 -3.54321 0.870077 -34.6845 -4.44453 1.19967 -34.9656 -5.34238 1.51445 -35.2734 -6.23986 1.8348 -35.5766 -6.25898 1.84173 -35.5831 1.1597 -0.935229 -34.515 2.15394 -0.98806 -34.6084 3.12892 -0.794885 -34.7183 4.11585 -0.65104 -34.791 5.09909 -0.476257 -34.8429 6.01362 -0.112934 -35.0207 6.93601 0.183325 -35.2686 7.86216 0.377928 -35.5916 8.59007 0.537684 -35.8413 1.23363 -0.865657 -35.4032 0.888312 0.0706976 -35.4664 0.500377 0.988616 -35.5497 0.424546 1.97622 -35.6871 0.528107 2.94819 -35.8982 0.615718 3.90879 -36.1619 0.799538 4.84622 -36.4577 0.99216 5.78678 -36.7374 1.19775 6.51408 -37.0527 1.21025 -0.858914 -36.3033 0.831183 -1.78354 -36.3404 0.472765 -2.71391 -36.4174 0.132044 -3.64868 -36.518 -0.282121 -4.55128 -36.6354 -0.800256 -5.40164 -36.7271 -1.35746 -6.16735 -37.0484 -1.75103 -7.04385 -37.3256 -2.01099 -7.58746 -37.4367 1.18678 -0.856511 -37.2268 1.68257 -1.7151 -37.3572 2.16101 -2.58948 -37.4382 2.62019 -3.47113 -37.5471 3.09154 -4.34691 -37.6512 3.48196 -5.24403 -37.8579 3.86625 -6.10001 -38.2038 4.27567 -6.93031 -38.5819 4.60151 -7.69375 -38.8919 1.18874 -0.883287 -38.1529 0.481211 -1.55012 -38.3869 -0.259345 -2.11783 -38.7465 -0.938215 -2.72574 -39.1582 -1.61842 -3.32341 -39.5826 -2.28237 -3.92493 -40.0269 -2.90271 -4.49904 -40.5613 -3.54881 -4.99046 -41.116 1.26331 -0.865035 -39.0583 1.3554 -1.84765 -38.8971 1.49663 -2.83628 -38.9486 1.42429 -3.80391 -39.1905 1.34144 -4.77549 -39.4122 1.21119 -5.7382 -39.6493 1.32603 -6.70113 -39.8934 1.36419 -7.64083 -40.2333 1.38802 -7.89767 -40.3194 1.12841 -0.937442 -39.9282 1.9799 -1.44272 -40.0684 2.8034 -1.92322 -40.37 3.59026 -2.49634 -40.5989 4.36624 -3.05072 -40.8998 5.13899 -3.59757 -41.222 5.87668 -4.06883 -41.7055 6.64643 -4.32244 -42.2912 7.02349 -4.41807 -42.5867 1.08741 -1.22424 -40.7888 1.61192 -0.418347 -41.0634 2.14255 0.383696 -41.3376 2.61218 1.02661 -41.9426 2.94416 1.7612 -42.5344 3.14593 2.48521 -43.194 3.33925 3.20442 -43.8613 3.36238 3.35447 -43.9945 0.971472 -1.29758 -41.7171 1.47939 -0.436365 -41.7354 1.72835 0.530739 -41.7877 2.01775 1.48737 -41.8208 2.36029 2.39907 -42.0477 2.61789 3.30802 -42.3755 2.66811 4.302 -42.4728 2.6831 4.57592 -42.5239 1.1234 -1.33171 -42.6291 0.290576 -0.798201 -42.7767 -0.545869 -0.27052 -42.9247 -1.38761 0.220324 -43.1495 -2.25662 0.667663 -43.361 -3.13756 1.10986 -43.5295 -4.00413 1.60807 -43.5584 -4.78953 2.06095 -43.5962 1.2382 -1.34209 -43.5158 0.274981 -1.60924 -43.4868 -0.659316 -1.95264 -43.5826 -1.61084 -2.12468 -43.8375 -2.4649 -2.3416 -44.3103 -3.36773 -2.52285 -44.7002 -3.65148 -2.58811 -44.8299 1.36345 -1.37457 -44.3931 1.33012 -2.34988 -44.1748 1.22666 -3.33693 -44.0522 1.1121 -4.32241 -43.9269 1.00618 -5.30847 -43.7985 0.882205 -6.29781 -43.8749 0.895203 -6.7682 -43.9235 1.45512 -1.43428 -45.3296 2.45375 -1.48037 -45.3046 3.43686 -1.36854 -45.4494 4.42854 -1.43897 -45.5572 5.33376 -1.05482 -45.7389 6.09316 -0.888493 -46.1574 1.48322 -1.37638 -46.2375 0.859345 -0.605348 -46.3652 0.491319 0.257628 -46.7113 0.118006 1.15169 -46.9589 -0.203576 2.06039 -47.2251 -0.537901 2.65364 -47.5468 1.51004 -1.30644 -47.1262 1.19537 -0.425179 -46.7735 0.812598 0.438051 -46.4444 0.761137 1.39427 -46.1563 0.708544 2.29747 -45.8774 1.55814 -1.31629 -48.0354 1.00875 -2.15081 -48.0774 0.465269 -2.98728 -48.1477 -0.192323 -3.70447 -48.3784 -0.807148 -4.4372 -48.6701 -1.24709 -4.95663 -48.9156 1.70232 -1.26594 -48.9036 0.992238 -0.566664 -48.9861 0.274363 0.12768 -49.0365 -0.509843 0.717663 -49.2287 -0.84012 0.941076 -49.3141 1.73619 -1.26695 -49.8116 2.68267 -0.993843 -49.6396 3.6433 -0.737488 -49.5325 4.33837 -0.49335 -49.557 1.79009 -1.23061 -50.7123 2.46539 -0.495684 -50.6502 2.99258 0.341236 -50.5031 3.27173 0.749764 -50.4294 1.76693 -1.1966 -51.6008 1.43248 -2.1117 -51.826 1.19063 -2.83475 -52.0917 1.74426 -1.1975 -52.5045 1.98398 -2.16799 -52.5309 2.00714 -2.26263 -52.5372 1.68756 -1.30054 -53.3835 1.97955 -1.29119 -53.4229 
</DataArray>
</Points>
<Lines>
<DataArray type="Int32" Name="connectivity" NumberOfComponents="1" format="ascii" >
0 1 2 3 4 5 6 7 8 9 10 11 12 13 14 15 16 17 18 19 20 21 22 23 24 25 26 27 28 29 30 31 32 33 34 35 36 37 38 39 40 41 42 43 44 45 46 47 48 49 50 51 52 53 54 55 56 57 58 59 60 61 62 63 64 65 66 67 68 69 70 71 72 73 74 75 76 77 78 79 80 81 82 83 84 85 86 87 88 89 90 91 92 93 94 95 96 97 98 99 100 101 102 103 104 105 106 107 108 109 110 111 112 113 114 115 116 117 118 119 120 121 122 123 124 125 126 127 128 129 130 131 132 133 134 135 136 137 138 139 140 141 142 143 144 145 146 147 148 149 150 151 152 153 154 155 156 157 158 159 160 161 162 163 164 165 166 167 168 169 170 171 172 173 174 175 176 177 178 179 180 181 182 183 184 185 186 187 188 189 190 191 192 193 194 195 196 197 198 199 200 201 202 203 204 205 206 207 208 209 210 211 212 213 214 215 216 217 218 219 220 221 222 223 224 225 226 227 228 229 230 231 232 233 234 235 236 237 238 239 240 241 242 243 244 245 246 247 248 249 250 251 252 253 254 255 256 257 258 259 260 261 262 263 264 265 266 267 268 269 270 271 272 273 274 275 276 277 278 279 280 281 282 283 284 285 286 287 288 289 290 291 292 293 294 295 296 297 298 299 300 301 302 303 304 305 306 307 308 309 310 311 312 313 314 315 316 317 318 319 320 321 322 323 324 325 326 327 328 329 330 331 332 333 334 335 336 337 338 339 340 341 342 343 344 345 346 347 348 349 350 351 352 353 354 355 356 357 358 359 360 361 362 363 364 365 366 367 368 369 370 371 372 373 374 375 376 377 378 379 380 381 382 383 384 385 386 387 388 389 390 391 392 393 394 395 396 397 398 399 400 401 402 403 404 405 406 407 408 409 410 411 412 413 414 415 416 417 418 419 420 421 422 423 424 425 426 427 428 429 430 431 432 433 434 435 436 437 438 439 440 441 442 443 444 445 446 447 448 449 450 451 452 453 454 455 456 457 458 459 460 461 462 463 464 465 466 467 468 469 470 471 472 473 474 475 476 477 478 479 480 481 482 483 484 485 486 487 488 489 490 491 492 493 494 495 496 497 498 499 500 501 502 503 504 505 506 507 508 509 510 511 512 513 514 515 516 517 518 519 520 521 522 523 524 525 526 527 528 529 530 531 532 533 534 535 536 537 538 539 540 541 542 543 544 545 546 547 548 549 550 551 552 553 554 555 556 557 558 559 560 561 562 563 564 565 566 567 568 569 570 571 572 573 574 575 576 577 578 579 
</DataArray>
<DataArray type="Int32" Name="offsets" NumberOfComponents="1" format="ascii" >
62 73 84 95 106 117 128 139 150 161 172 183 194 205 216 227 238 249 260 271 282 293 303 314 324 335 345 355 366 376 386 396 406 416 426 436 445 454 463 472 480 489 498 506 514 522 529 536 542 548 553 559 564 568 572 575 578 580 
</DataArray>

</Lines>
</Piece>
</PolyData>
</VTKFile>
