<?xml version="1.0"?><VTKFile type="PolyData" version="0.1" byte_order="LittleEndian">
<PolyData>
<Piece NumberOfLines="28" NumberOfPoints="694">
<PointData Scalars=" PointData">
<DataArray type="Float32" Name="time" NumberOfComponents="1" format="ascii" >
0 0.460797 0.696248 0.919349 1.05497 1.19176 1.3721 1.49148 1.53703 1.62416 1.79784 1.99338 2.12939 2.13796 2.2963 2.52894 2.71759 2.88158 2.93348 3.03106 3.21221 3.25895 3.31259 3.46581 3.64956 3.81548 3.87716 4.04356 4.1435 4.22961 4.3749 4.56617 4.73199 4.79412 4.97028 5.19303 5.47303 5.66398 5.78172 5.88314 6 5.0154 6 5.29627 6 5.56286 6 5.72514 6 5.889 6 0 0.630393 1.00266 1.28911 1.72957 2.16029 2.50136 2.81499 2.91443 3.26439 3.57111 3.87394 4.04825 4.52751 4.80382 4.95988 5.45853 5.79896 6 0 0.65446 0.773661 0.960762 1.18592 1.37158 1.52023 1.6943 1.81504 1.86403 2.02848 2.23502 2.31678 2.39261 2.56843 2.65095 2.80465 2.91155 2.98271 3.14888 3.21701 3.34347 3.48331 3.56586 3.76978 3.93325 4.07958 4.29496 4.44593 4.66956 4.86595 5.01453 5.15535 5.28199 5.46622 5.54291 5.62041 5.76053 5.86329 5.99397 6 5.24953 6 5.38937 6 5.60907 6 5.87378 6 0 0.594242 0.677103 0.773462 0.83304 0.833043 0.941652 1.00251 1.06801 1.17595 1.2512 1.35846 1.44329 1.52294 1.56696 1.65138 1.74206 1.78827 1.83842 1.91208 2.04872 2.16515 2.28134 2.41748 2.54214 2.69301 2.79825 2.91414 3.08275 3.14116 3.2226 3.32198 3.4322 3.49678 3.59363 3.7171 3.74494 3.76532 3.87045 3.98945 4.04907 4.08369 4.24359 4.31731 4.42069 4.54251 4.69301 4.7563 4.8671 5.03832 5.12736 5.22009 5.3311 5.52762 5.63381 5.70776 5.80338 5.91201 6 5.85556 6 5.96296 6 0 2.1033 2.31574 2.48743 2.74705 3.19824 3.49989 3.74993 3.92736 4.24669 4.45056 4.66378 4.86115 5.00484 5.25154 5.52664 5.73107 6 0 0.138018 0.244798 0.244802 0.322401 0.491619 0.63716 0.7277 0.890449 0.995651 1.10781 1.19713 1.20305 1.37957 1.48412 1.57493 1.65784 1.7759 1.89898 2.01844 2.10224 2.21037 2.34786 2.45925 2.58141 2.70463 2.88676 2.96648 3.08679 3.19995 3.38651 3.42401 3.54159 3.63216 3.70011 3.78036 3.86756 3.93715 4.09165 4.1087 4.20023 4.30318 4.53906 4.59111 4.76641 4.82185 5.03713 5.12207 5.22997 5.38934 5.5559 5.67715 5.74675 5.74676 5.88005 6 0 0.0802953 0.19667 0.290956 0.379608 0.454819 0.583802 0.689581 0.774395 0.955695 1.01069 1.07725 1.11181 1.22523 1.28936 1.40368 1.50749 1.68528 1.75716 1.92475 1.98334 2.11549 2.20752 2.30496 2.48276 2.59414 2.68099 2.84308 2.99376 3.18475 3.40394 3.40394 3.504 3.65474 3.82317 3.92753 3.9961 4.1301 4.25011 4.36463 4.5109 4.56005 4.70095 4.84855 5.02109 5.17558 5.23 5.2911 5.4013 5.53659 5.72436 5.83588 5.96568 6 0 0.0275055 0.133521 0.138222 0.222172 0.318118 0.385752 0.520194 0.573448 0.68674 0.780868 0.871566 0.954095 1.03785 1.10285 1.26005 1.39818 1.44187 1.54892 1.66606 1.80279 1.91646 2.0161 2.1631 2.36942 2.48876 2.59732 2.62774 2.74863 2.90096 2.97449 3.11241 3.26958 3.36948 3.44511 3.63626 3.72799 3.88526 3.98873 4.04297 4.17925 4.28217 4.40768 4.44063 4.58829 4.77832 4.97986 5.01962 5.15955 5.33175 5.43429 5.54812 5.70735 5.72677 5.74383 5.98169 5.99758 6 0 0.519719 0.775112 0.899867 1.00908 1.21059 1.25282 1.40512 1.4606 1.58607 1.72554 1.81307 2.04464 2.21743 2.32394 2.45352 2.50537 2.6511 2.71221 2.78348 2.84655 2.93922 3.01996 3.14513 3.35403 3.51946 3.66024 3.73552 3.84295 3.90894 3.98539 4.08915 4.22184 4.24759 4.33414 4.56141 4.60902 4.6813 4.90957 4.93811 5.09197 5.13487 5.23747 5.44315 5.44316 5.509 5.63796 5.72172 5.87262 5.92074 6 0 0.667356 1.0297 1.44176 1.72942 2.04164 2.35657 2.56231 2.93433 3.28002 3.61935 4.32904 4.9555 5.19126 5.44539 5.64185 5.91433 6 0 0.231644 0.394093 0.563313 0.769645 0.899004 1.04455 1.20785 1.44052 1.57374 1.71525 1.94492 2.18978 2.31103 2.47591 2.61101 2.76512 3.06253 3.1482 3.34889 3.52489 3.64304 3.7993 4.02259 4.26782 4.40989 4.64879 4.7578 4.84199 5.10475 5.28306 5.54515 5.73847 5.88852 5.98621 6 0 0.0129905 0.210279 0.336645 0.51021 0.727778 0.848774 1.11743 1.23799 1.3633 1.5219 1.68029 1.82512 2.09105 2.24477 2.35624 2.53341 2.73105 2.89797 3.09928 3.23727 3.37333 3.50846 3.65547 3.85574 4.06959 4.14395 4.26145 4.40587 4.5878 4.67722 4.80814 4.92797 4.92798 5.2211 5.4122 5.60477 5.85693 6 0 0.471569 0.601439 0.69424 0.903294 1.10076 1.17327 1.31742 1.42093 1.53977 1.60997 1.75556 1.91915 2.05893 2.27417 2.37495 2.56769 2.7174 2.77461 2.99594 3.17589 3.29429 3.4261 3.63071 3.83114 3.90581 4.04655 4.15494 4.26296 4.4508 4.64196 4.78835 4.94992 5.0888 5.29906 5.40438 5.52551 5.74136 5.89264 5.92747 6 0 1.34929 1.41383 1.54461 1.72285 1.87887 2.0073 2.11698 2.24899 2.37042 2.50978 2.54187 2.68124 2.81084 2.94077 3.09585 3.22064 3.3562 3.54087 3.55683 3.65651 3.79239 3.95744 4.00443 4.13929 4.29666 4.45698 4.66623 4.85064 4.88107 5.03292 5.22767 5.42416 5.64956 5.74307 6 0 1.29639 1.45007 1.66875 1.85853 1.99823 2.11464 2.35443 2.51343 2.66197 2.84404 3.05759 3.15224 3.27814 3.34951 3.48216 3.60259 3.80297 3.80942 3.88748 4.06507 4.14575 4.22852 4.39331 4.63224 4.67311 4.8083 4.96028 5.13972 5.33333 5.47671 5.66839 5.80518 6 0 0.0764419 0.28969 0.672294 0.782996 0.860779 1.05678 1.30924 1.64677 1.93998 2.21792 2.61677 3.0726 3.48811 3.72744 3.95816 4.20123 4.56043 4.87269 5.23296 5.44155 5.9247 6 0 1.07195 1.19028 1.25568 1.30422 1.37371 1.47203 1.5739 1.66571 1.7674 1.91566 1.96845 2.04947 2.12467 2.24169 2.42806 2.53369 2.61914 2.82178 2.94394 3.10289 3.21877 3.38697 3.46862 3.63268 3.7445 3.90342 3.98795 4.08605 4.18681 4.22369 4.33477 4.43449 4.47948 4.55296 4.62146 4.73925 4.84767 4.947 5.08485 5.23473 5.42292 5.57699 5.63724 5.71833 5.8011 5.99438 6 
</DataArray>

</PointData>
<CellData Scalars=" CellData">
<DataArray type="Float32" Name="radius" NumberOfComponents="1" format="ascii" >
0.056686 0.0294953 0.026708 0.0300097 0.0406508 0.0335022 0.0544388 0.0506209 0.0248293 0.0283229 0.0260841 0.0257752 0.050564 0.0277125 0.0240229 0.0459837 0.0538518 0.0489383 0.0508086 0.0529326 0.0444299 0.0545317 0.0447059 0.0518838 0.0466764 0.0551301 0.0448753 0.0543447 
</DataArray>
<DataArray type="Float32" Name="subType" NumberOfComponents="1" format="ascii" >
1 2 2 2 2 2 4 4 2 2 2 2 4 2 2 4 4 4 4 4 4 4 4 4 4 4 4 4 
</DataArray>
<DataArray type="Float32" Name="creationTime" NumberOfComponents="1" format="ascii" >
0 5.0154 5.29627 5.56286 5.72514 5.889 0 0 5.24953 5.38937 5.60907 5.87378 0 5.85556 5.96296 0 0 0 0 0 0 0 0 0 0 0 0 0 
</DataArray>

</CellData>
<Points>
<DataArray type="Float32" Name="Coordinates" NumberOfComponents="3" format="ascii" >
0 0 -3 0.516573 0.571705 -3.63185 0.808756 0.78303 -3.98163 1.0726 0.972061 -4.32408 1.26048 1.07281 -4.51298 1.44638 1.17727 -4.70329 1.66984 1.33664 -4.95806 1.80895 1.4426 -5.13173 1.86211 1.48129 -5.19856 1.96252 1.54487 -5.33223 2.19317 1.71965 -5.5374 2.36694 1.95806 -5.80239 2.48883 2.11993 -5.98695 2.4966 2.13015 -5.99842 2.63735 2.32166 -6.20844 2.91032 2.48651 -6.54341 3.08192 2.61211 -6.84865 3.22154 2.723 -7.11582 3.25994 2.76131 -7.20128 3.30669 2.84789 -7.36356 3.38497 2.99834 -7.6702 3.40692 3.03398 -7.74991 3.43063 3.0741 -7.84187 3.50204 3.15786 -8.1138 3.57169 3.23881 -8.44662 3.62309 3.29289 -8.75111 3.64228 3.31298 -8.86376 3.64609 3.38816 -9.16619 3.65138 3.43874 -9.34533 3.66798 3.47236 -9.50075 3.70692 3.5257 -9.76105 3.77986 3.57556 -10.101 3.83113 3.62512 -10.3949 3.84607 3.63771 -10.506 3.86595 3.6527 -10.8235 3.80783 3.72187 -11.2127 3.67755 3.89455 -11.6606 3.59954 4.05655 -11.9446 3.55869 4.15798 -12.1192 3.52585 4.24726 -12.2681 3.48835 4.34962 -12.4391 0.516573 0.571705 -3.63185 0.421031 0.964819 -4.88091 0.808756 0.78303 -3.98163 1.66011 0.304548 -4.3344 1.0726 0.972061 -4.32408 1.51353 0.959414 -4.64733 1.26048 1.07281 -4.51298 1.26654 1.29187 -4.80133 1.44638 1.17727 -4.70329 1.5217 1.1866 -4.87806 0 0 -3 -0.0540851 -0.225109 -3.53396 -0.0564873 -0.355498 -3.84943 -0.0778019 -0.500543 -4.06599 -0.0261532 -0.699288 -4.40942 0.0268378 -0.910867 -4.7315 0.0487819 -1.09904 -4.97235 0.070791 -1.26519 -5.19733 0.0778516 -1.31775 -5.26842 0.109133 -1.49096 -5.52509 0.106866 -1.64456 -5.74901 0.077982 -1.8354 -5.93351 0.0606663 -1.95374 -6.02925 0.0242182 -2.26373 -6.30933 -0.0157219 -2.41946 -6.48827 -0.0412476 -2.5199 -6.5755 -0.148367 -2.8177 -6.86799 -0.263205 -3.04866 -7.00601 -0.330059 -3.1846 -7.08774 0 0 -3 -0.00151901 -0.0431063 -4.25845 -0.00165439 -0.0508078 -4.4846 -0.0392122 -0.0575451 -4.83584 -0.098636 -0.0500046 -5.25369 -0.154064 -0.0214798 -5.59364 -0.195515 -0.00848599 -5.86532 -0.244829 -0.013402 -6.18183 -0.288974 -0.0197081 -6.39836 -0.312008 -0.0162691 -6.4847 -0.410535 -0.0235328 -6.76705 -0.47617 -0.086098 -7.12915 -0.504778 -0.104151 -7.27222 -0.531373 -0.120861 -7.40454 -0.582621 -0.149866 -7.7129 -0.594588 -0.1356 -7.8584 -0.587387 -0.152825 -8.12986 -0.584489 -0.19163 -8.3142 -0.597114 -0.222611 -8.43465 -0.622546 -0.258455 -8.72205 -0.637186 -0.259319 -8.83987 -0.646624 -0.259002 -9.05929 -0.644047 -0.265919 -9.30092 -0.647733 -0.279793 -9.44234 -0.672188 -0.318563 -9.78876 -0.69997 -0.34823 -10.0641 -0.739599 -0.395228 -10.3042 -0.799504 -0.464014 -10.655 -0.80875 -0.485574 -10.9064 -0.847758 -0.45991 -11.275 -0.883285 -0.433291 -11.5958 -0.916994 -0.440882 -11.837 -0.932152 -0.462102 -12.0652 -0.933379 -0.500768 -12.2672 -0.934906 -0.557481 -12.5593 -0.935245 -0.580915 -12.6803 -0.946056 -0.600999 -12.8025 -0.962292 -0.635408 -13.0231 -0.98186 -0.663209 -13.183 -1.00743 -0.718626 -13.3808 -1.00883 -0.721077 -13.3899 -0.00151901 -0.0431063 -4.25845 0.706998 1.20549 -4.57854 -0.00165439 -0.0508078 -4.4846 0.145959 0.820612 -4.90615 -0.0392122 -0.0575451 -4.83584 -0.0834054 -0.0556416 -5.24564 -0.098636 -0.0500046 -5.25369 -0.148676 -0.0730062 -5.34621 0 0 -3 -0.711502 -0.326747 -4.64792 -0.807261 -0.323351 -4.87903 -0.915045 -0.338262 -5.14749 -0.966315 -0.357414 -5.3173 -0.966318 -0.357415 -5.31731 -1.04541 -0.295272 -5.6252 -1.11453 -0.279792 -5.79149 -1.17745 -0.262982 -5.97414 -1.34074 -0.200808 -6.24009 -1.4216 -0.155151 -6.44046 -1.56877 -0.0701101 -6.70374 -1.70354 -0.0229295 -6.90492 -1.81932 0.0678358 -7.08258 -1.88576 0.10325 -7.18497 -2.01327 0.147355 -7.38707 -2.14653 0.194 -7.60526 -2.20217 0.216542 -7.72279 -2.25482 0.227953 -7.85515 -2.33433 0.234066 -8.04861 -2.5537 0.207016 -8.3653 -2.73427 0.175082 -8.63605 -2.91669 0.144226 -8.90262 -3.12907 0.108378 -9.21307 -3.28759 0.0868122 -9.51733 -3.50597 0.0423782 -9.86534 -3.65106 0.0218431 -10.1115 -3.75195 -0.0171354 -10.406 -3.88435 -0.0617858 -10.8371 -3.93293 -0.0812737 -10.9842 -3.99803 -0.118547 -11.1878 -4.02777 -0.212883 -11.4321 -4.08115 -0.333553 -11.6913 -4.12009 -0.423679 -11.8297 -4.15626 -0.551939 -12.0453 -4.20286 -0.717276 -12.3169 -4.21312 -0.753289 -12.3786 -4.21972 -0.780242 -12.4235 -4.2424 -0.936443 -12.6443 -4.20375 -1.11818 -12.8869 -4.19269 -1.19807 -13.0163 -4.18162 -1.24321 -13.0913 -4.09601 -1.40442 -13.4539 -4.08878 -1.46954 -13.628 -4.09659 -1.52513 -13.8817 -4.06851 -1.5861 -14.1786 -4.02839 -1.69124 -14.5349 -4.03383 -1.74165 -14.6828 -4.02315 -1.80836 -14.9467 -4.03798 -1.90875 -15.3523 -4.05137 -1.96242 -15.5611 -4.09241 -2.03319 -15.7696 -4.14235 -2.114 -16.0189 -4.21417 -2.24845 -16.4622 -4.29981 -2.29796 -16.6934 -4.36083 -2.34232 -16.8505 -4.43571 -2.39411 -17.0556 -4.51871 -2.43993 -17.291 -4.59106 -2.47402 -17.4792 -0.711502 -0.326747 -4.64792 -0.702416 -0.348762 -4.95343 -0.807261 -0.323351 -4.87903 -0.872257 -0.321552 -4.84066 0 0 -3 -0.381611 -1.34104 -5.01105 -0.42797 -1.43934 -5.22746 -0.465745 -1.51879 -5.40154 -0.501913 -1.65254 -5.66065 -0.508411 -1.8668 -6.12062 -0.574949 -2.03204 -6.40671 -0.631822 -2.14575 -6.65395 -0.651111 -2.21096 -6.83835 -0.725887 -2.26272 -7.17859 -0.763334 -2.29917 -7.3962 -0.751602 -2.32633 -7.62752 -0.73714 -2.33575 -7.84193 -0.74136 -2.36012 -7.99609 -0.722224 -2.42044 -8.25561 -0.668077 -2.49106 -8.53845 -0.626527 -2.53932 -8.74843 -0.594926 -2.596 -9.02846 0 0 -3 0.159801 0.0556937 -3.28621 0.275955 0.0941176 -3.51116 0.275959 0.0941191 -3.51117 0.339029 0.129688 -3.68191 0.539614 0.184887 -4.02655 0.652916 0.229441 -4.34852 0.717332 0.240475 -4.55145 0.846465 0.241982 -4.91036 0.944127 0.232019 -5.1352 1.03739 0.192738 -5.37526 1.12434 0.149583 -5.55772 1.13018 0.146638 -5.56974 1.23426 0.00728243 -5.93698 1.256 -0.0539108 -6.16743 1.2631 -0.0940093 -6.37061 1.25508 -0.133403 -6.55485 1.22666 -0.257027 -6.79036 1.22437 -0.317738 -7.06129 1.23746 -0.379677 -7.32197 1.2441 -0.398923 -7.50834 1.2656 -0.428102 -7.74664 1.28761 -0.467576 -8.04837 1.30466 -0.524319 -8.28718 1.32257 -0.528506 -8.55523 1.35549 -0.538071 -8.82279 1.46133 -0.566285 -9.20384 1.4927 -0.593425 -9.37149 1.58868 -0.638358 -9.60853 1.68911 -0.677514 -9.82649 1.83693 -0.764106 -10.1865 1.868 -0.76875 -10.2599 2.01186 -0.760562 -10.4635 2.11141 -0.752942 -10.6269 2.18592 -0.752021 -10.7492 2.28489 -0.753948 -10.8858 2.38933 -0.75256 -11.0357 2.47225 -0.748657 -11.155 2.65354 -0.727722 -11.4196 2.67294 -0.726161 -11.4492 2.78184 -0.718185 -11.6039 2.89769 -0.698168 -11.7807 3.22716 -0.659007 -12.1323 3.29826 -0.664728 -12.2108 3.53386 -0.694976 -12.4757 3.60847 -0.706338 -12.5585 3.81825 -0.765095 -12.9326 3.91916 -0.786878 -13.0675 4.04323 -0.815952 -13.2407 4.22983 -0.837405 -13.4948 4.42248 -0.849248 -13.7603 4.55754 -0.857923 -13.9556 4.64758 -0.870912 -14.0567 4.64758 -0.870913 -14.0567 4.81941 -0.896593 -14.2493 4.99165 -0.923636 -14.4028 0 0 -3 -0.0584042 -0.024662 -3.19431 -0.170383 -0.079246 -3.46181 -0.260878 -0.125321 -3.67717 -0.359703 -0.166233 -3.87293 -0.424015 -0.231493 -4.03783 -0.554889 -0.332637 -4.31438 -0.667796 -0.416 -4.53687 -0.761171 -0.478088 -4.71459 -0.991361 -0.506175 -5.09658 -1.06177 -0.514427 -5.21138 -1.13318 -0.542757 -5.35506 -1.15587 -0.553663 -5.43564 -1.25164 -0.598087 -5.69092 -1.30101 -0.592908 -5.83848 -1.38928 -0.60235 -6.10035 -1.43715 -0.608766 -6.3457 -1.51741 -0.632995 -6.76324 -1.55867 -0.645624 -6.92907 -1.60811 -0.744939 -7.31091 -1.63242 -0.773473 -7.44414 -1.68355 -0.840344 -7.74354 -1.73545 -0.875456 -7.94987 -1.8114 -0.907569 -8.1619 -1.92347 -0.989433 -8.55072 -2.00256 -1.03598 -8.79095 -2.06694 -1.0554 -8.97906 -2.15506 -1.08653 -9.3381 -2.24382 -1.1141 -9.66806 -2.35766 -1.15578 -10.0823 -2.47332 -1.18181 -10.5592 -2.47332 -1.18181 -10.5592 -2.51561 -1.1561 -10.7765 -2.5527 -1.11362 -11.1059 -2.52735 -1.1035 -11.476 -2.47927 -1.03753 -11.6897 -2.4478 -0.984874 -11.8263 -2.38974 -0.872948 -12.0892 -2.35697 -0.762099 -12.3218 -2.29975 -0.634138 -12.5249 -2.1749 -0.515048 -12.7868 -2.13291 -0.474336 -12.874 -2.0146 -0.370179 -13.129 -1.88009 -0.265197 -13.3906 -1.72949 -0.175583 -13.7083 -1.55488 -0.0802226 -13.9625 -1.50183 -0.0453331 -14.0563 -1.43913 -0.0037023 -14.1584 -1.31558 0.061607 -14.3386 -1.15967 0.103649 -14.5656 -0.941495 0.177121 -14.8733 -0.799626 0.205951 -15.048 -0.684514 0.261612 -15.2777 -0.657711 0.269437 -15.3411 0 0 -3 -0.0228899 0.00602449 -3.0603 -0.0889567 0.0265535 -3.29953 -0.0919271 0.0274939 -3.3101 -0.144235 0.0437429 -3.49873 -0.19434 0.0633102 -3.71584 -0.229129 0.0820968 -3.86795 -0.292802 0.0725422 -4.17236 -0.299475 0.0573064 -4.29401 -0.313698 0.0249131 -4.55195 -0.323881 -0.0461177 -4.75506 -0.33727 -0.134399 -4.9416 -0.342141 -0.203198 -5.11598 -0.359382 -0.259028 -5.29644 -0.358671 -0.314025 -5.4325 -0.351351 -0.448444 -5.75925 -0.41401 -0.551405 -6.04344 -0.425354 -0.584817 -6.13411 -0.467907 -0.664345 -6.35396 -0.555584 -0.755555 -6.57983 -0.641683 -0.850075 -6.85195 -0.731568 -0.947567 -7.06238 -0.808316 -1.00833 -7.25613 -0.941935 -1.06293 -7.54026 -1.14746 -1.16667 -7.92007 -1.28018 -1.24298 -8.12432 -1.39122 -1.32637 -8.30907 -1.42253 -1.35233 -8.35924 -1.52788 -1.4659 -8.56292 -1.66061 -1.6058 -8.81916 -1.7244 -1.67278 -8.94241 -1.85594 -1.72621 -9.1928 -1.99111 -1.72242 -9.48952 -2.09047 -1.69171 -9.66759 -2.17685 -1.68714 -9.79685 -2.35155 -1.72766 -10.1444 -2.43259 -1.74368 -10.3118 -2.58113 -1.76965 -10.5921 -2.67809 -1.78707 -10.7757 -2.73857 -1.78661 -10.8663 -2.89524 -1.81135 -11.0879 -3.03387 -1.85874 -11.2311 -3.20146 -1.8804 -11.4135 -3.24603 -1.88469 -11.4608 -3.42679 -1.88188 -11.6882 -3.67326 -1.8633 -11.9655 -3.94505 -1.83813 -12.2453 -3.99185 -1.83203 -12.3058 -4.15632 -1.7982 -12.5162 -4.32169 -1.7471 -12.7961 -4.43046 -1.71222 -12.954 -4.54231 -1.66443 -13.1319 -4.68974 -1.591 -13.3823 -4.70812 -1.58011 -13.4118 -4.72314 -1.57121 -13.4386 -4.8709 -1.44134 -13.8361 -4.88102 -1.4332 -13.8626 -4.88253 -1.43202 -13.8667 0 0 -3 -0.62097 0.476105 -3.8841 -1.00249 0.58574 -4.29523 -1.17773 0.654817 -4.49848 -1.3052 0.741729 -4.68427 -1.57239 0.896584 -5.00172 -1.629 0.928806 -5.06724 -1.77821 1.0442 -5.34031 -1.82478 1.08131 -5.44496 -1.92788 1.19608 -5.66822 -1.99894 1.34065 -5.92143 -2.05578 1.43977 -6.07009 -2.14035 1.72704 -6.46174 -2.28995 1.92899 -6.72643 -2.36144 2.04112 -6.9064 -2.44894 2.18305 -7.12003 -2.48468 2.24642 -7.19993 -2.55449 2.43461 -7.42628 -2.58413 2.51769 -7.51675 -2.5934 2.62642 -7.61524 -2.60042 2.73165 -7.69077 -2.59853 2.8796 -7.81003 -2.59853 3.00216 -7.92055 -2.56486 3.1737 -8.10592 -2.50773 3.4541 -8.41678 -2.47132 3.65793 -8.6765 -2.45374 3.81632 -8.90794 -2.46095 3.89396 -9.03563 -2.44702 4.01676 -9.20884 -2.42801 4.10171 -9.30574 -2.40207 4.1968 -9.41946 -2.36359 4.31418 -9.5812 -2.34943 4.48905 -9.77186 -2.34395 4.52045 -9.81054 -2.35758 4.63371 -9.93404 -2.39237 4.92593 -10.2594 -2.39966 4.98838 -10.3258 -2.40942 5.0815 -10.4278 -2.4886 5.34875 -10.7615 -2.49748 5.38247 -10.8029 -2.52274 5.57546 -11.0186 -2.53377 5.62758 -11.0792 -2.56104 5.75148 -11.224 -2.60618 6.01393 -11.5 -2.60618 6.01394 -11.5 -2.61844 6.09712 -11.5886 -2.60307 6.25666 -11.7649 -2.58709 6.34384 -11.8911 -2.57371 6.54458 -12.0806 -2.56996 6.61108 -12.1379 -2.56088 6.72534 -12.2255 0 0 -3 -0.114028 0.347839 -3.29824 -0.182098 0.532198 -3.46024 -0.274274 0.752567 -3.62152 -0.33821 0.90606 -3.73322 -0.405432 1.07406 -3.85225 -0.480542 1.2438 -3.96581 -0.537693 1.34975 -4.04054 -0.651152 1.53142 -4.17939 -0.762708 1.6779 -4.32721 -0.866476 1.81866 -4.47778 -1.0578 2.10164 -4.81419 -1.19217 2.35158 -5.12331 -1.24613 2.43039 -5.248 -1.30565 2.51978 -5.37818 -1.3631 2.5763 -5.48032 -1.40826 2.64118 -5.64193 -1.41965 2.66189 -5.69317 0 0 -3 -0.14085 0.179108 -3.27419 -0.232498 0.336775 -3.4435 -0.329937 0.470098 -3.64199 -0.46246 0.637374 -3.87153 -0.526922 0.74739 -4.02001 -0.599652 0.869083 -4.18757 -0.694934 1.01446 -4.36075 -0.77992 1.26638 -4.5852 -0.847373 1.41894 -4.69253 -0.901839 1.57525 -4.82179 -1.00333 1.8553 -4.98437 -1.05866 2.15585 -5.1742 -1.09118 2.3083 -5.25886 -1.14134 2.52174 -5.35739 -1.17591 2.70098 -5.4295 -1.21597 2.90461 -5.51139 -1.31422 3.26941 -5.71308 -1.33517 3.37721 -5.76804 -1.35362 3.63832 -5.885 -1.37493 3.8637 -5.99177 -1.37183 4.01832 -6.05598 -1.38634 4.2205 -6.14339 -1.41193 4.48977 -6.30285 -1.46484 4.78433 -6.47031 -1.46652 4.96437 -6.55214 -1.4819 5.25804 -6.70418 -1.48623 5.38958 -6.77704 -1.48155 5.49481 -6.82544 -1.52567 5.80949 -6.99524 -1.56276 6.02271 -7.10622 -1.61136 6.33534 -7.2686 -1.65782 6.55395 -7.4032 -1.68764 6.71652 -7.51878 -1.69563 6.81904 -7.59979 -1.69674 6.83359 -7.6111 0 0 -3 0.0213331 0.00358203 -2.9995 0.3419 0.0700326 -2.98683 0.546548 0.0968561 -2.95471 0.827182 0.148331 -2.94036 1.17158 0.238894 -2.93799 1.35747 0.302958 -2.95148 1.7655 0.418353 -3.04938 1.94398 0.451522 -3.11837 2.13268 0.496139 -3.17188 2.36771 0.548656 -3.25126 2.59257 0.611233 -3.34648 2.7877 0.682213 -3.44426 3.17278 0.757337 -3.59115 3.40057 0.794877 -3.65938 3.56118 0.822507 -3.72008 3.80987 0.815364 -3.83783 4.08087 0.797616 -3.97761 4.30215 0.77842 -4.10611 4.57089 0.775233 -4.25627 4.75718 0.747043 -4.34905 4.93586 0.713952 -4.44664 5.11376 0.682607 -4.54155 5.29203 0.674541 -4.67211 5.55109 0.612433 -4.80946 5.79483 0.568834 -5.00927 5.88109 0.550027 -5.07518 6.02033 0.532631 -5.17743 6.18518 0.492761 -5.30562 6.38734 0.536002 -5.47394 6.49049 0.55896 -5.55052 6.64602 0.594951 -5.65448 6.78127 0.625276 -5.75923 6.78128 0.625278 -5.75923 7.12068 0.684363 -6.0038 7.33247 0.709684 -6.17505 7.51641 0.768646 -6.36958 7.75562 0.845729 -6.6227 7.89636 0.866843 -6.76499 0 0 -3 -0.723929 -0.42801 -3.23531 -0.920048 -0.540153 -3.31149 -1.07177 -0.608254 -3.34587 -1.41361 -0.748877 -3.43777 -1.72574 -0.884509 -3.54775 -1.83979 -0.943359 -3.57315 -2.08051 -1.01639 -3.63586 -2.25271 -1.06958 -3.67985 -2.46191 -1.08032 -3.71429 -2.58404 -1.08836 -3.73997 -2.83745 -1.10834 -3.78733 -3.11628 -1.14176 -3.8565 -3.35328 -1.12372 -3.92013 -3.7085 -1.08695 -4.04077 -3.87187 -1.05176 -4.09498 -4.17609 -0.970249 -4.20785 -4.41309 -0.903887 -4.2872 -4.49608 -0.875055 -4.33181 -4.80682 -0.718638 -4.48378 -5.00461 -0.540825 -4.63684 -5.13827 -0.421857 -4.7285 -5.26708 -0.269296 -4.8278 -5.45496 -0.0316776 -4.99183 -5.53897 0.199691 -5.21976 -5.57078 0.288507 -5.30098 -5.63461 0.461326 -5.4451 -5.71533 0.586576 -5.54517 -5.78886 0.722725 -5.63379 -5.90592 0.966557 -5.78269 -6.02837 1.21921 -5.91991 -6.08109 1.43009 -6.01721 -6.1801 1.65064 -6.11732 -6.27803 1.83331 -6.20214 -6.40257 2.1144 -6.34101 -6.46405 2.253 -6.4138 -6.5112 2.4169 -6.5038 -6.58024 2.71324 -6.65979 -6.56618 2.92009 -6.77743 -6.56841 2.96778 -6.8042 -6.57524 3.0643 -6.8641 0 0 -3 0.494888 -0.486006 -5.81391 0.520663 -0.508319 -5.94479 0.626759 -0.556925 -6.19169 0.712085 -0.626737 -6.5451 0.799342 -0.629201 -6.85523 0.858865 -0.635776 -7.11222 0.951406 -0.651875 -7.31605 1.05715 -0.699548 -7.55874 1.16241 -0.744243 -7.77692 1.27579 -0.790836 -8.03024 1.30351 -0.800956 -8.08772 1.40825 -0.813467 -8.34684 1.51264 -0.835382 -8.58278 1.61956 -0.856123 -8.81713 1.74739 -0.890386 -9.09405 1.80469 -0.91792 -9.33145 1.87583 -0.909465 -9.58736 1.95002 -0.917583 -9.93957 1.95697 -0.916765 -9.9698 1.99447 -0.943068 -10.1576 2.09809 -1.06471 -10.3656 2.16873 -1.22454 -10.6302 2.18857 -1.2682 -10.7062 2.27218 -1.33647 -10.9398 2.37927 -1.33986 -11.2186 2.45365 -1.27307 -11.5042 2.55969 -1.21206 -11.877 2.64989 -1.15679 -12.2038 2.66882 -1.14783 -12.2562 2.76402 -1.10186 -12.5164 2.8785 -1.06923 -12.8541 3.01571 -1.08892 -13.185 3.16908 -1.13773 -13.5605 3.19299 -1.15681 -13.7263 3.35054 -1.29434 -14.1363 0 0 -3 -1.36828 1.13907 -4.45972 -1.52228 1.30818 -4.5981 -1.68399 1.57977 -4.80604 -1.82514 1.81403 -4.98426 -1.91869 2.01834 -5.06616 -2.00493 2.18308 -5.13583 -2.10282 2.51228 -5.35411 -2.15734 2.73549 -5.49266 -2.20634 2.91657 -5.65725 -2.28247 3.12551 -5.8652 -2.34187 3.33267 -6.1474 -2.36267 3.44115 -6.25852 -2.39315 3.59147 -6.39867 -2.41475 3.67571 -6.47761 -2.45304 3.81554 -6.63996 -2.48899 3.92239 -6.80137 -2.54917 4.1 -7.06814 -2.55146 4.10578 -7.07658 -2.58107 4.18371 -7.17171 -2.66732 4.37108 -7.37095 -2.70459 4.45377 -7.46379 -2.73489 4.53254 -7.56639 -2.83099 4.65147 -7.78104 -2.97108 4.81948 -8.0917 -2.99223 4.85026 -8.14457 -3.05813 4.93339 -8.32995 -3.14854 5.05252 -8.51653 -3.25562 5.1922 -8.73557 -3.38645 5.38065 -8.93133 -3.44988 5.53766 -9.07529 -3.5286 5.74731 -9.26839 -3.58767 5.88833 -9.41243 -3.66935 6.09733 -9.60811 0 0 -3 -0.0416333 0.0381117 -3.0454 -0.157789 0.140363 -3.17468 -0.376875 0.296743 -3.41405 -0.441956 0.331172 -3.48727 -0.487524 0.355261 -3.53877 -0.600101 0.416102 -3.66992 -0.749019 0.478277 -3.84107 -0.973017 0.464402 -4.05945 -1.15033 0.472811 -4.26391 -1.32079 0.509046 -4.45086 -1.60877 0.56923 -4.6668 -1.95207 0.640555 -4.8878 -2.26271 0.71669 -5.08431 -2.4435 0.74847 -5.19659 -2.61855 0.777361 -5.3027 -2.81362 0.808432 -5.3926 -3.09138 0.892997 -5.52545 -3.33506 0.916676 -5.65332 -3.61594 0.894176 -5.79876 -3.77833 0.881537 -5.8818 -4.1526 0.918458 -6.07172 -4.21105 0.92431 -6.10044 0 0 -3 -0.918512 -2.39553 -3.59858 -1.01877 -2.65664 -3.64867 -1.07769 -2.80086 -3.66334 -1.12186 -2.90754 -3.67335 -1.2049 -3.05071 -3.67155 -1.32743 -3.24936 -3.66657 -1.45701 -3.45217 -3.67757 -1.5444 -3.64381 -3.72689 -1.64508 -3.84976 -3.7934 -1.87374 -4.08611 -3.90198 -1.93237 -4.18541 -3.94428 -2.00213 -4.33568 -4.03321 -2.04432 -4.49 -4.10166 -2.09349 -4.73848 -4.19438 -2.1567 -5.11938 -4.37695 -2.1934 -5.33371 -4.48012 -2.19987 -5.50648 -4.56807 -2.18651 -5.8997 -4.80146 -2.14121 -6.11286 -4.96763 -2.12853 -6.42199 -5.14099 -2.07645 -6.60549 -5.31347 -1.99553 -6.89774 -5.52757 -1.95684 -7.04116 -5.62805 -1.86605 -7.32741 -5.82405 -1.80607 -7.5145 -5.96727 -1.73361 -7.77144 -6.18371 -1.70074 -7.90489 -6.30297 -1.64607 -8.02304 -6.4683 -1.5748 -8.15148 -6.62567 -1.5556 -8.20256 -6.68223 -1.45444 -8.31987 -6.86032 -1.34688 -8.4257 -7.00783 -1.29848 -8.47332 -7.0742 -1.21745 -8.55477 -7.17781 -1.1486 -8.62637 -7.28182 -1.01954 -8.72707 -7.46601 -0.885237 -8.80424 -7.63033 -0.754028 -8.88075 -7.76957 -0.581152 -8.99095 -7.96703 -0.379914 -9.05818 -8.18995 -0.127947 -9.14639 -8.46585 0.0496495 -9.22471 -8.71038 0.124426 -9.24778 -8.80343 0.228341 -9.27635 -8.92598 0.32255 -9.31373 -9.05751 0.421775 -9.45764 -9.40128 0.42467 -9.46216 -9.41107 
</DataArray>
</Points>
<Lines>
<DataArray type="Int32" Name="connectivity" NumberOfComponents="1" format="ascii" >
0 1 2 3 4 5 6 7 8 9 10 11 12 13 14 15 16 17 18 19 20 21 22 23 24 25 26 27 28 29 30 31 32 33 34 35 36 37 38 39 40 41 42 43 44 45 46 47 48 49 50 51 52 53 54 55 56 57 58 59 60 61 62 63 64 65 66 67 68 69 70 71 72 73 74 75 76 77 78 79 80 81 82 83 84 85 86 87 88 89 90 91 92 93 94 95 96 97 98 99 100 101 102 103 104 105 106 107 108 109 110 111 112 113 114 115 116 117 118 119 120 121 122 123 124 125 126 127 128 129 130 131 132 133 134 135 136 137 138 139 140 141 142 143 144 145 146 147 148 149 150 151 152 153 154 155 156 157 158 159 160 161 162 163 164 165 166 167 168 169 170 171 172 173 174 175 176 177 178 179 180 181 182 183 184 185 186 187 188 189 190 191 192 193 194 195 196 197 198 199 200 201 202 203 204 205 206 207 208 209 210 211 212 213 214 215 216 217 218 219 220 221 222 223 224 225 226 227 228 229 230 231 232 233 234 235 236 237 238 239 240 241 242 243 244 245 246 247 248 249 250 251 252 253 254 255 256 257 258 259 260 261 262 263 264 265 266 267 268 269 270 271 272 273 274 275 276 277 278 279 280 281 282 283 284 285 286 287 288 289 290 291 292 293 294 295 296 297 298 299 300 301 302 303 304 305 306 307 308 309 310 311 312 313 314 315 316 317 318 319 320 321 322 323 324 325 326 327 328 329 330 331 332 333 334 335 336 337 338 339 340 341 342 343 344 345 346 347 348 349 350 351 352 353 354 355 356 357 358 359 360 361 362 363 364 365 366 367 368 369 370 371 372 373 374 375 376 377 378 379 380 381 382 383 384 385 386 387 388 389 390 391 392 393 394 395 396 397 398 399 400 401 402 403 404 405 406 407 408 409 410 411 412 413 414 415 416 417 418 419 420 421 422 423 424 425 426 427 428 429 430 431 432 433 434 435 436 437 438 439 440 441 442 443 444 445 446 447 448 449 450 451 452 453 454 455 456 457 458 459 460 461 462 463 464 465 466 467 468 469 470 471 472 473 474 475 476 477 478 479 480 481 482 483 484 485 486 487 488 489 490 491 492 493 494 495 496 497 498 499 500 501 502 503 504 505 506 507 508 509 510 511 512 513 514 515 516 517 518 519 520 521 522 523 524 525 526 527 528 529 530 531 532 533 534 535 536 537 538 539 540 541 542 543 544 545 546 547 548 549 550 551 552 553 554 555 556 557 558 559 560 561 562 563 564 565 566 567 568 569 570 571 572 573 574 575 576 577 578 579 580 581 582 583 584 585 586 587 588 589 590 591 592 593 594 595 596 597 598 599 600 601 602 603 604 605 606 607 608 609 610 611 612 613 614 615 616 617 618 619 620 621 622 623 624 625 626 627 628 629 630 631 632 633 634 635 636 637 638 639 640 641 642 643 644 645 646 647 648 649 650 651 652 653 654 655 656 657 658 659 660 661 662 663 664 665 666 667 668 669 670 671 672 673 674 675 676 677 678 679 680 681 682 683 684 685 686 687 688 689 690 691 692 693 
</DataArray>
<DataArray type="Int32" Name="offsets" NumberOfComponents="1" format="ascii" >
41 43 45 47 49 51 70 111 113 115 117 119 178 180 182 200 256 310 368 419 437 473 512 553 589 623 646 694 
</DataArray>

</Lines>
</Piece>
</PolyData>
</VTKFile>
