<?xml version="1.0"?><VTKFile type="PolyData" version="0.1" byte_order="LittleEndian">
<PolyData>
<Piece NumberOfLines="21" NumberOfPoints="117">
<PointData Scalars=" PointData">
<DataArray type="Float32" Name="time" NumberOfComponents="1" format="ascii" >
0 0.164338 0.517568 0.876591 1.24716 1.62374 1.99763 2.38801 2.79552 3.19667 3.63209 4.06865 4.51233 4.93937 5.37965 5.82685 6.28234 6.76628 7.25115 7.71785 8.21848 8.7241 9.23754 9.79289 10 1.30451 2.74495 4.35522 6.18079 8.28826 10 1.67604 2.94877 4.37156 5.98458 7.84668 10 2.05398 3.38491 4.87277 6.55956 8.50682 10 2.4444 3.51412 4.70997 6.06571 7.6308 9.48191 10 2.8415 4.08311 5.47112 7.04471 8.86128 10 3.23613 4.42731 5.75894 7.26862 9.01142 10 3.64854 4.80715 6.10238 7.57078 9.26593 10 4.07949 5.14631 6.33891 7.69098 9.25182 10 4.50414 5.62002 6.86748 8.28173 9.91436 10 4.96558 6.23879 7.66213 9.27577 10 5.42875 6.64123 7.99667 9.53334 10 5.90005 7.30956 8.88526 10 6.35422 7.53047 8.84541 10 6.82303 8.17571 9.68788 10 7.29983 8.59395 10 7.78611 8.9598 10 8.30349 9.7333 10 8.82264 10 9.32308 10 9.86075 10 
</DataArray>

</PointData>
<CellData Scalars=" CellData">
<DataArray type="Float32" Name="radius" NumberOfComponents="1" format="ascii" >
0.0356577 0.0275109 0.0318367 0.0268927 0.0294291 0.0229931 0.0271834 0.0251104 0.0299018 0.0269375 0.0266921 0.0230393 0.0204449 0.032323 0.0265785 0.0270759 0.0242367 0.0329315 0.021992 0.0253666 0.0230684 
</DataArray>
<DataArray type="Float32" Name="subType" NumberOfComponents="1" format="ascii" >
1 2 2 2 2 2 2 2 2 2 2 2 2 2 2 2 2 2 2 2 2 
</DataArray>
<DataArray type="Float32" Name="creationTime" NumberOfComponents="1" format="ascii" >
0 1.30451 1.67604 2.05398 2.4444 2.8415 3.23613 3.64854 4.07949 4.50414 4.96558 5.42875 5.90005 6.35422 6.82303 7.29983 7.78611 8.30349 8.82264 9.32308 9.86075 
</DataArray>

</CellData>
<Points>
<DataArray type="Float32" Name="Coordinates" NumberOfComponents="3" format="ascii" >
0 0 -3 0.0271004 -0.031084 -3.41271 0.112485 -0.072514 -4.28902 0.207652 -0.29098 -5.1382 0.263497 -0.310093 -6.03212 0.608002 -0.340678 -6.85822 0.865347 -0.295241 -7.6929 0.984657 -0.220961 -8.57982 1.08647 -0.221776 -9.49529 1.03027 -0.136062 -10.3801 1.1751 0.00556263 -11.3075 1.36883 0.0769856 -12.2181 1.3616 0.0569897 -13.1486 1.42128 0.0700403 -14.0253 1.50649 0.0665021 -14.9102 1.61998 0.100732 -15.7877 1.7445 0.138978 -16.6623 1.76766 0.136588 -17.5822 1.76416 0.221963 -18.4808 1.76344 0.290054 -19.3288 1.7798 0.30503 -20.222 1.81627 0.303177 -21.1039 1.81778 0.365295 -21.9781 1.824 0.411807 -22.9029 1.77456 0.41867 -23.2388 0.0271004 -0.031084 -3.41271 -0.52851 0.789367 -3.54746 -1.12421 1.57245 -3.72616 -1.65765 2.39109 -3.9389 -2.26142 3.12476 -4.25066 -2.60529 3.63866 -4.59161 0.112485 -0.072514 -4.28902 0.806587 0.630344 -4.13342 1.52032 1.31788 -3.99972 2.1555 2.08575 -3.9165 2.80529 2.84393 -3.86231 3.51114 3.51665 -3.76778 0.207652 -0.29098 -5.1382 1.20693 -0.276596 -5.17334 2.20634 -0.248268 -5.15393 3.18087 -0.0251179 -5.13181 4.16421 -0.0750067 -5.30663 4.81671 -0.0341777 -5.44813 0.263497 -0.310093 -6.03212 0.324966 -1.30808 -6.04759 0.550479 -2.2811 -6.09647 0.761608 -3.24543 -6.25611 0.822303 -4.19256 -6.57118 1.04761 -5.09611 -6.93564 1.10516 -5.32197 -7.02251 0.608002 -0.340678 -6.85822 1.18211 0.447775 -6.63745 1.78917 1.20739 -6.40406 2.35373 2.02908 -6.32602 2.72292 2.9557 -6.25482 2.96615 3.45079 -6.22104 0.865347 -0.295241 -7.6929 1.16369 -1.21025 -7.96448 1.5531 -2.06821 -8.29952 2.00761 -2.85448 -8.71809 2.25813 -3.71543 -9.16081 2.37635 -4.12837 -9.42133 0.984657 -0.220961 -8.57982 0.0259336 0.0216262 -8.72815 -0.919814 0.258625 -8.95039 -1.8772 0.323999 -9.23169 -2.86179 0.288131 -9.40288 -3.23133 0.29592 -9.51904 1.08647 -0.221776 -9.49529 1.96288 -0.622286 -9.22791 2.85484 -1.02481 -9.02204 3.79869 -1.34111 -8.92664 4.66434 -1.82864 -8.81278 5.05473 -1.98314 -8.73301 1.03027 -0.136062 -10.3801 0.94517 0.852693 -10.2572 0.783382 1.83559 -10.1692 0.662743 2.81853 -10.0304 0.490429 3.80219 -10.0826 0.482105 3.84972 -10.085 1.1751 0.00556263 -11.3075 0.335917 0.485026 -11.0508 -0.410396 1.13444 -10.905 -1.21506 1.72816 -10.9006 -1.55865 1.94639 -10.9118 1.36883 0.0769856 -12.2181 0.506235 -0.308781 -12.5454 -0.4275 -0.409869 -12.8888 -1.32959 -0.336112 -13.314 -1.58633 -0.317733 -13.4195 1.3616 0.0569897 -13.1486 2.25592 -0.149003 -13.5458 3.12437 -0.347406 -14.0001 3.71068 -0.441912 -14.2376 1.42128 0.0700403 -14.0253 1.97527 -0.760005 -13.9612 2.46216 -1.63346 -13.9645 3.02139 -2.18351 -14.0149 1.50649 0.0665021 -14.9102 0.810479 0.716963 -15.2143 0.11438 1.36539 -15.5225 -0.0278946 1.47577 -15.5895 1.61998 0.100732 -15.7877 1.74354 1.05989 -15.5332 1.84979 2.00448 -15.3232 1.7445 0.138978 -16.6623 1.4763 -0.818881 -16.5594 1.26765 -1.58895 -16.4745 1.76766 0.136588 -17.5822 2.24094 0.996898 -17.3928 2.34276 1.12984 -17.3415 1.76416 0.221963 -18.4808 0.914228 0.459581 -18.5734 1.76344 0.290054 -19.3288 2.19732 0.744341 -19.2438 1.7798 0.30503 -20.222 1.68255 0.365816 -20.2029 
</DataArray>
</Points>
<Lines>
<DataArray type="Int32" Name="connectivity" NumberOfComponents="1" format="ascii" >
0 1 2 3 4 5 6 7 8 9 10 11 12 13 14 15 16 17 18 19 20 21 22 23 24 25 26 27 28 29 30 31 32 33 34 35 36 37 38 39 40 41 42 43 44 45 46 47 48 49 50 51 52 53 54 55 56 57 58 59 60 61 62 63 64 65 66 67 68 69 70 71 72 73 74 75 76 77 78 79 80 81 82 83 84 85 86 87 88 89 90 91 92 93 94 95 96 97 98 99 100 101 102 103 104 105 106 107 108 109 110 111 112 113 114 115 116 
</DataArray>
<DataArray type="Int32" Name="offsets" NumberOfComponents="1" format="ascii" >
25 31 37 43 50 56 62 68 74 80 85 90 94 98 102 105 108 111 113 115 117 
</DataArray>

</Lines>
</Piece>
</PolyData>
</VTKFile>
